 Entering Gaussian System, Link 0=g16
 Input=epoxide.com
 Output=epoxide.log
 Initial command:
 /usr/public/gaussian//g16/l1.exe "/gsfs0/data/xuhq/Gau-10167.inp" -scrdir="/gsfs0/data/xuhq/"
 Entering Link 1 = /usr/public/gaussian//g16/l1.exe PID=     10168.
  
 Copyright (c) 1988,1990,1992,1993,1995,1998,2003,2009,2016,
            Gaussian, Inc.  All Rights Reserved.
  
 This is part of the Gaussian(R) 16 program.  It is based on
 the Gaussian(R) 09 system (copyright 2009, Gaussian, Inc.),
 the Gaussian(R) 03 system (copyright 2003, Gaussian, Inc.),
 the Gaussian(R) 98 system (copyright 1998, Gaussian, Inc.),
 the Gaussian(R) 94 system (copyright 1995, Gaussian, Inc.),
 the Gaussian 92(TM) system (copyright 1992, Gaussian, Inc.),
 the Gaussian 90(TM) system (copyright 1990, Gaussian, Inc.),
 the Gaussian 88(TM) system (copyright 1988, Gaussian, Inc.),
 the Gaussian 86(TM) system (copyright 1986, Carnegie Mellon
 University), and the Gaussian 82(TM) system (copyright 1983,
 Carnegie Mellon University). Gaussian is a federally registered
 trademark of Gaussian, Inc.
  
 This software contains proprietary and confidential information,
 including trade secrets, belonging to Gaussian, Inc.
  
 This software is provided under written license and may be
 used, copied, transmitted, or stored only in accord with that
 written license.
  
 The following legend is applicable only to US Government
 contracts under FAR:
  
                    RESTRICTED RIGHTS LEGEND
  
 Use, reproduction and disclosure by the US Government is
 subject to restrictions as set forth in subparagraphs (a)
 and (c) of the Commercial Computer Software - Restricted
 Rights clause in FAR 52.227-19.
  
 Gaussian, Inc.
 340 Quinnipiac St., Bldg. 40, Wallingford CT 06492
  
  
 ---------------------------------------------------------------
 Warning -- This program may not be used in any manner that
 competes with the business of Gaussian, Inc. or will provide
 assistance to any competitor of Gaussian, Inc.  The licensee
 of this program is prohibited from giving any competitor of
 Gaussian, Inc. access to this program.  By using this program,
 the user acknowledges that Gaussian, Inc. is engaged in the
 business of creating and licensing software in the field of
 computational chemistry and represents and warrants to the
 licensee that it is not a competitor of Gaussian, Inc. and that
 it will not use this program in any manner prohibited above.
 ---------------------------------------------------------------
  

 Cite this work as:
 Gaussian 16, Revision A.03,
 M. J. Frisch, G. W. Trucks, H. B. Schlegel, G. E. Scuseria, 
 M. A. Robb, J. R. Cheeseman, G. Scalmani, V. Barone, 
 G. A. Petersson, H. Nakatsuji, X. Li, M. Caricato, A. V. Marenich, 
 J. Bloino, B. G. Janesko, R. Gomperts, B. Mennucci, H. P. Hratchian, 
 J. V. Ortiz, A. F. Izmaylov, J. L. Sonnenberg, D. Williams-Young, 
 F. Ding, F. Lipparini, F. Egidi, J. Goings, B. Peng, A. Petrone, 
 T. Henderson, D. Ranasinghe, V. G. Zakrzewski, J. Gao, N. Rega, 
 G. Zheng, W. Liang, M. Hada, M. Ehara, K. Toyota, R. Fukuda, 
 J. Hasegawa, M. Ishida, T. Nakajima, Y. Honda, O. Kitao, H. Nakai, 
 T. Vreven, K. Throssell, J. A. Montgomery, Jr., J. E. Peralta, 
 F. Ogliaro, M. J. Bearpark, J. J. Heyd, E. N. Brothers, K. N. Kudin, 
 V. N. Staroverov, T. A. Keith, R. Kobayashi, J. Normand, 
 K. Raghavachari, A. P. Rendell, J. C. Burant, S. S. Iyengar, 
 J. Tomasi, M. Cossi, J. M. Millam, M. Klene, C. Adamo, R. Cammi, 
 J. W. Ochterski, R. L. Martin, K. Morokuma, O. Farkas, 
 J. B. Foresman, and D. J. Fox, Gaussian, Inc., Wallingford CT, 2016.
 
 ******************************************
 Gaussian 16:  ES64L-G16RevA.03 25-Dec-2016
                 2-Jan-2021 
 ******************************************
 %mem=32gb
 %nprocshared=28
 Will use up to   28 processors via shared memory.
 %chk=OCl.chk
 --------------------------
 #p B3lyp /6-311G* opt freq
 --------------------------
 1/18=20,19=15,26=3,38=1/1,3;
 2/9=110,12=2,17=6,18=5,40=1/2;
 3/5=4,6=6,7=1,11=2,25=1,30=1,71=1,74=-5/1,2,3;
 4//1;
 5/5=2,38=5/2;
 6/7=2,8=2,9=2,10=2,28=1/1;
 7//1,2,3,16;
 1/18=20,19=15,26=3/3(2);
 2/9=110/2;
 99//99;
 2/9=110/2;
 3/5=4,6=6,7=1,11=2,25=1,30=1,71=1,74=-5/1,2,3;
 4/5=5,16=3,69=1/1;
 5/5=2,38=5/2;
 7//1,2,3,16;
 1/18=20,19=15,26=3/3(-5);
 2/9=110/2;
 6/7=2,8=2,9=2,10=2,19=2,28=1/1;
 99/9=1/99;
 Leave Link    1 at Sat Jan  2 00:01:48 2021, MaxMem=  4294967296 cpu:               1.5 elap:               0.1
 (Enter /usr/public/gaussian//g16/l101.exe)
 -------
 comment
 -------
 Symbolic Z-matrix:
 Charge =  0 Multiplicity = 1
 O                     0.60943   0.13846  -1.3535 
 C                     0.5624   -0.80091  -2.39648 
 H                     0.83333  -0.28902  -3.34413 
 H                    -0.35511  -1.41422  -2.2835 
 C                     1.57712  -0.88466  -1.31275 
 H                     1.39959  -1.4708   -0.38688 
 C                     2.9558   -0.35803  -1.62992 
 C                     4.02636  -1.26616  -1.64074 
 C                     3.20884   1.0008   -1.90968 
 C                     5.32406  -0.82932  -1.92496 
 H                     3.85602  -2.31437  -1.42704 
 C                     4.508     1.43193  -2.1955 
 H                     2.40935   1.73009  -1.91051 
 C                     5.56463   0.51825  -2.20264 
 H                     6.14378  -1.53628  -1.92966 
 H                     4.69558   2.47581  -2.41121 
 H                     6.56945   0.85479  -2.42297 
 
 ITRead=  0  0  0  0  0  0  0  0  0  0  0  0  0  0  0  0  0
 MicOpt= -1 -1 -1 -1 -1 -1 -1 -1 -1 -1 -1 -1 -1 -1 -1 -1 -1
 NAtoms=     17 NQM=       17 NQMF=       0 NMMI=      0 NMMIF=      0
                NMic=       0 NMicF=      0.
                    Isotopes and Nuclear Properties:
 (Nuclear quadrupole moments (NQMom) in fm**2, nuclear magnetic moments (NMagM)
  in nuclear magnetons)

  Atom         1           2           3           4           5           6           7           8           9          10
 IAtWgt=          16          12           1           1          12           1          12          12          12          12
 AtmWgt=  15.9949146  12.0000000   1.0078250   1.0078250  12.0000000   1.0078250  12.0000000  12.0000000  12.0000000  12.0000000
 NucSpn=           0           0           1           1           0           1           0           0           0           0
 AtZEff=  -0.0000000  -0.0000000  -0.0000000  -0.0000000  -0.0000000  -0.0000000  -0.0000000  -0.0000000  -0.0000000  -0.0000000
 NQMom=    0.0000000   0.0000000   0.0000000   0.0000000   0.0000000   0.0000000   0.0000000   0.0000000   0.0000000   0.0000000
 NMagM=    0.0000000   0.0000000   2.7928460   2.7928460   0.0000000   2.7928460   0.0000000   0.0000000   0.0000000   0.0000000
 AtZNuc=   8.0000000   6.0000000   1.0000000   1.0000000   6.0000000   1.0000000   6.0000000   6.0000000   6.0000000   6.0000000

  Atom        11          12          13          14          15          16          17
 IAtWgt=           1          12           1          12           1           1           1
 AtmWgt=   1.0078250  12.0000000   1.0078250  12.0000000   1.0078250   1.0078250   1.0078250
 NucSpn=           1           0           1           0           1           1           1
 AtZEff=  -0.0000000  -0.0000000  -0.0000000  -0.0000000  -0.0000000  -0.0000000  -0.0000000
 NQMom=    0.0000000   0.0000000   0.0000000   0.0000000   0.0000000   0.0000000   0.0000000
 NMagM=    2.7928460   0.0000000   2.7928460   0.0000000   2.7928460   2.7928460   2.7928460
 AtZNuc=   1.0000000   6.0000000   1.0000000   6.0000000   1.0000000   1.0000000   1.0000000
 Leave Link  101 at Sat Jan  2 00:01:48 2021, MaxMem=  4294967296 cpu:               8.6 elap:               0.3
 (Enter /usr/public/gaussian//g16/l103.exe)

 GradGradGradGradGradGradGradGradGradGradGradGradGradGradGradGradGradGrad
 Berny optimization.
 Initialization pass.
                           ----------------------------
                           !    Initial Parameters    !
                           ! (Angstroms and Degrees)  !
 --------------------------                            --------------------------
 ! Name  Definition              Value          Derivative Info.                !
 --------------------------------------------------------------------------------
 ! R1    R(1,2)                  1.4044         estimate D2E/DX2                !
 ! R2    R(1,5)                  1.4089         estimate D2E/DX2                !
 ! R3    R(2,3)                  1.1106         estimate D2E/DX2                !
 ! R4    R(2,4)                  1.1094         estimate D2E/DX2                !
 ! R5    R(2,5)                  1.487          estimate D2E/DX2                !
 ! R6    R(5,6)                  1.1101         estimate D2E/DX2                !
 ! R7    R(5,7)                  1.5095         estimate D2E/DX2                !
 ! R8    R(7,8)                  1.4039         estimate D2E/DX2                !
 ! R9    R(7,9)                  1.4102         estimate D2E/DX2                !
 ! R10   R(8,10)                 1.3984         estimate D2E/DX2                !
 ! R11   R(8,11)                 1.0832         estimate D2E/DX2                !
 ! R12   R(9,12)                 1.3984         estimate D2E/DX2                !
 ! R13   R(9,13)                 1.0822         estimate D2E/DX2                !
 ! R14   R(10,14)                1.3968         estimate D2E/DX2                !
 ! R15   R(10,15)                1.0825         estimate D2E/DX2                !
 ! R16   R(12,14)                1.3969         estimate D2E/DX2                !
 ! R17   R(12,16)                1.0823         estimate D2E/DX2                !
 ! R18   R(14,17)                1.0823         estimate D2E/DX2                !
 ! A1    A(1,2,3)              108.4944         estimate D2E/DX2                !
 ! A2    A(1,2,4)              108.774          estimate D2E/DX2                !
 ! A3    A(3,2,4)              122.9191         estimate D2E/DX2                !
 ! A4    A(3,2,5)              118.774          estimate D2E/DX2                !
 ! A5    A(4,2,5)              117.3235         estimate D2E/DX2                !
 ! A6    A(1,5,6)              107.3209         estimate D2E/DX2                !
 ! A7    A(1,5,7)              111.5858         estimate D2E/DX2                !
 ! A8    A(2,5,6)              121.9018         estimate D2E/DX2                !
 ! A9    A(2,5,7)              116.7735         estimate D2E/DX2                !
 ! A10   A(6,5,7)              120.3651         estimate D2E/DX2                !
 ! A11   A(5,7,8)              118.1908         estimate D2E/DX2                !
 ! A12   A(5,7,9)              122.8006         estimate D2E/DX2                !
 ! A13   A(8,7,9)              119.0082         estimate D2E/DX2                !
 ! A14   A(7,8,10)             120.473          estimate D2E/DX2                !
 ! A15   A(7,8,11)             120.2988         estimate D2E/DX2                !
 ! A16   A(10,8,11)            119.2282         estimate D2E/DX2                !
 ! A17   A(7,9,12)             120.2871         estimate D2E/DX2                !
 ! A18   A(7,9,13)             121.1283         estimate D2E/DX2                !
 ! A19   A(12,9,13)            118.5845         estimate D2E/DX2                !
 ! A20   A(8,10,14)            120.1065         estimate D2E/DX2                !
 ! A21   A(8,10,15)            119.9724         estimate D2E/DX2                !
 ! A22   A(14,10,15)           119.9211         estimate D2E/DX2                !
 ! A23   A(9,12,14)            120.1417         estimate D2E/DX2                !
 ! A24   A(9,12,16)            119.942          estimate D2E/DX2                !
 ! A25   A(14,12,16)           119.9164         estimate D2E/DX2                !
 ! A26   A(10,14,12)           119.9833         estimate D2E/DX2                !
 ! A27   A(10,14,17)           120.0235         estimate D2E/DX2                !
 ! A28   A(12,14,17)           119.9931         estimate D2E/DX2                !
 ! D1    D(3,2,5,6)           -173.7124         estimate D2E/DX2                !
 ! D2    D(3,2,5,7)             -4.8904         estimate D2E/DX2                !
 ! D3    D(4,2,5,6)             -4.7199         estimate D2E/DX2                !
 ! D4    D(4,2,5,7)            164.1021         estimate D2E/DX2                !
 ! D5    D(1,5,7,8)           -179.3889         estimate D2E/DX2                !
 ! D6    D(1,5,7,9)              0.804          estimate D2E/DX2                !
 ! D7    D(2,5,7,8)           -115.4693         estimate D2E/DX2                !
 ! D8    D(2,5,7,9)             64.7236         estimate D2E/DX2                !
 ! D9    D(6,5,7,8)             53.5346         estimate D2E/DX2                !
 ! D10   D(6,5,7,9)           -126.2725         estimate D2E/DX2                !
 ! D11   D(5,7,8,10)          -179.8245         estimate D2E/DX2                !
 ! D12   D(5,7,8,11)             0.0747         estimate D2E/DX2                !
 ! D13   D(9,7,8,10)            -0.0099         estimate D2E/DX2                !
 ! D14   D(9,7,8,11)           179.8893         estimate D2E/DX2                !
 ! D15   D(5,7,9,12)           179.925          estimate D2E/DX2                !
 ! D16   D(5,7,9,13)            -0.1888         estimate D2E/DX2                !
 ! D17   D(8,7,9,12)             0.1194         estimate D2E/DX2                !
 ! D18   D(8,7,9,13)          -179.9944         estimate D2E/DX2                !
 ! D19   D(7,8,10,14)           -0.0774         estimate D2E/DX2                !
 ! D20   D(7,8,10,15)          179.9086         estimate D2E/DX2                !
 ! D21   D(11,8,10,14)        -179.9777         estimate D2E/DX2                !
 ! D22   D(11,8,10,15)           0.0083         estimate D2E/DX2                !
 ! D23   D(7,9,12,14)           -0.1423         estimate D2E/DX2                !
 ! D24   D(7,9,12,16)          179.8875         estimate D2E/DX2                !
 ! D25   D(13,9,12,14)         179.9688         estimate D2E/DX2                !
 ! D26   D(13,9,12,16)          -0.0015         estimate D2E/DX2                !
 ! D27   D(8,10,14,12)           0.0554         estimate D2E/DX2                !
 ! D28   D(8,10,14,17)        -179.9667         estimate D2E/DX2                !
 ! D29   D(15,10,14,12)       -179.9305         estimate D2E/DX2                !
 ! D30   D(15,10,14,17)          0.0473         estimate D2E/DX2                !
 ! D31   D(9,12,14,10)           0.0542         estimate D2E/DX2                !
 ! D32   D(9,12,14,17)        -179.9237         estimate D2E/DX2                !
 ! D33   D(16,12,14,10)       -179.9755         estimate D2E/DX2                !
 ! D34   D(16,12,14,17)          0.0466         estimate D2E/DX2                !
 --------------------------------------------------------------------------------
 Trust Radius=3.00D-01 FncErr=1.00D-07 GrdErr=1.00D-06 EigMax=2.50D+02 EigMin=1.00D-04
 Number of steps in this run=     90 maximum allowed number of steps=    102.
 GradGradGradGradGradGradGradGradGradGradGradGradGradGradGradGradGradGrad

 Leave Link  103 at Sat Jan  2 00:01:48 2021, MaxMem=  4294967296 cpu:               1.6 elap:               0.1
 (Enter /usr/public/gaussian//g16/l202.exe)
                          Input orientation:                          
 ---------------------------------------------------------------------
 Center     Atomic      Atomic             Coordinates (Angstroms)
 Number     Number       Type             X           Y           Z
 ---------------------------------------------------------------------
      1          8           0        0.609430    0.138460   -1.353500
      2          6           0        0.562400   -0.800910   -2.396480
      3          1           0        0.833330   -0.289020   -3.344130
      4          1           0       -0.355110   -1.414220   -2.283500
      5          6           0        1.577120   -0.884660   -1.312750
      6          1           0        1.399590   -1.470800   -0.386880
      7          6           0        2.955800   -0.358030   -1.629920
      8          6           0        4.026360   -1.266160   -1.640740
      9          6           0        3.208840    1.000800   -1.909680
     10          6           0        5.324060   -0.829320   -1.924960
     11          1           0        3.856020   -2.314370   -1.427040
     12          6           0        4.508000    1.431930   -2.195500
     13          1           0        2.409350    1.730090   -1.910510
     14          6           0        5.564630    0.518250   -2.202640
     15          1           0        6.143780   -1.536280   -1.929660
     16          1           0        4.695580    2.475810   -2.411210
     17          1           0        6.569450    0.854790   -2.422970
 ---------------------------------------------------------------------
                    Distance matrix (angstroms):
                    1          2          3          4          5
     1  O    0.000000
     2  C    1.404434   0.000000
     3  H    2.048287   1.110619   0.000000
     4  H    2.050866   1.109386   1.950231   0.000000
     5  C    1.408850   1.486991   2.243773   2.226275   0.000000
     6  H    2.036768   2.277747   3.234591   2.584442   1.110096
     7  C    2.414200   2.551886   2.729131   3.536217   1.509535
     8  C    3.705520   3.575838   3.748570   4.430840   2.500379
     9  C    2.794620   3.238329   3.060119   4.321320   2.563941
    10  C    4.846741   4.785033   4.740530   5.720457   3.797028
    11  H    4.069660   3.752107   4.112655   4.390605   2.692679
    12  C    4.192956   4.538031   4.217134   5.635437   3.838736
    13  H    2.466426   3.170702   2.935287   4.203337   2.808352
    14  C    5.041754   5.176878   4.933547   6.227704   4.319757
    15  H    5.810830   5.648937   5.635358   6.509660   4.653984
    16  H    4.824788   5.274494   4.840620   6.376371   4.714251
    17  H    6.097437   6.231107   5.921141   7.288168   5.402003
                    6          7          8          9         10
     6  H    0.000000
     7  C    2.281490   0.000000
     8  C    2.917870   1.403893   0.000000
     9  C    3.420689   1.410218   2.424825   0.000000
    10  C    4.263643   2.432657   1.398440   2.797093   0.000000
    11  H    2.797783   2.163059   1.083249   3.412057   2.146728
    12  C    4.621597   2.435808   2.796324   1.398350   2.419173
    13  H    3.686022   2.176599   3.415408   1.082150   3.878959
    14  C    4.959926   2.811026   2.422009   2.422484   1.396755
    15  H    4.989168   3.411940   2.154044   3.879568   1.082477
    16  H    5.526047   3.415830   3.878636   2.153505   3.399310
    17  H    6.023411   3.893370   3.402590   3.402717   2.152960
                   11         12         13         14         15
    11  H    0.000000
    12  C    3.879481   0.000000
    13  H    4.322529   2.138797   0.000000
    14  C    3.397740   1.396900   3.392593   0.000000
    15  H    2.468177   3.399517   4.961402   2.151982   0.000000
    16  H    4.961782   1.082314   2.456348   2.151927   4.292556
    17  H    4.289307   2.152768   4.281962   1.082344   2.478259
                   16         17
    16  H    0.000000
    17  H    2.477748   0.000000
 Stoichiometry    C8H8O
 Framework group  C1[X(C8H8O)]
 Deg. of freedom    45
 Full point group                 C1      NOp   1
 Largest Abelian subgroup         C1      NOp   1
 Largest concise Abelian subgroup C1      NOp   1
                         Standard orientation:                         
 ---------------------------------------------------------------------
 Center     Atomic      Atomic             Coordinates (Angstroms)
 Number     Number       Type             X           Y           Z
 ---------------------------------------------------------------------
      1          8           0        2.420866    0.602953   -0.408885
      2          6           0        2.541159   -0.153495    0.768294
      3          1           0        2.122874    0.437006    1.610803
      4          1           0        3.550889   -0.612186    0.796327
      5          6           0        1.635297   -0.564342   -0.337039
      6          1           0        1.971946   -1.239896   -1.151045
      7          6           0        0.170523   -0.238714   -0.172421
      8          6           0       -0.738520   -1.303878   -0.072507
      9          6           0       -0.316869    1.083543   -0.119508
     10          6           0       -2.106773   -1.056827    0.077447
     11          1           0       -0.387165   -2.327783   -0.112444
     12          6           0       -1.685761    1.325012    0.032841
     13          1           0        0.353156    1.930109   -0.193263
     14          6           0       -2.579933    0.256266    0.130658
     15          1           0       -2.800696   -1.884254    0.152216
     16          1           0       -2.053540    2.342065    0.074601
     17          1           0       -3.639127    0.445930    0.247287
 ---------------------------------------------------------------------
 Rotational constants (GHZ):           4.2954146           1.1425720           0.9596593
 Leave Link  202 at Sat Jan  2 00:01:48 2021, MaxMem=  4294967296 cpu:               0.2 elap:               0.0
 (Enter /usr/public/gaussian//g16/l301.exe)
 Standard basis: 6-311G(d) (5D, 7F)
 Ernie: Thresh=  0.10000D-02 Tol=  0.10000D-05 Strict=F.
 There are   195 symmetry adapted cartesian basis functions of A   symmetry.
 There are   186 symmetry adapted basis functions of A   symmetry.
   186 basis functions,   328 primitive gaussians,   195 cartesian basis functions
    32 alpha electrons       32 beta electrons
       nuclear repulsion energy       406.5933354836 Hartrees.
 IExCor=  402 DFT=T Ex+Corr=B3LYP ExCW=0 ScaHFX=  0.200000
 ScaDFX=  0.800000  0.720000  1.000000  0.810000 ScalE2=  1.000000  1.000000
 IRadAn=      5 IRanWt=     -1 IRanGd=            0 ICorTp=0 IEmpDi=  4
 NAtoms=   17 NActive=   17 NUniq=   17 SFac= 1.00D+00 NAtFMM=   60 NAOKFM=F Big=F
 Integral buffers will be    131072 words long.
 Raffenetti 2 integral format.
 Two-electron integral symmetry is turned on.
 Leave Link  301 at Sat Jan  2 00:01:48 2021, MaxMem=  4294967296 cpu:               1.3 elap:               0.1
 (Enter /usr/public/gaussian//g16/l302.exe)
 NPDir=0 NMtPBC=     1 NCelOv=     1 NCel=       1 NClECP=     1 NCelD=      1
         NCelK=      1 NCelE2=     1 NClLst=     1 CellRange=     0.0.
 One-electron integrals computed using PRISM.
 One-electron integral symmetry used in STVInt
 NBasis=   186 RedAO= T EigKep=  1.97D-04  NBF=   186
 NBsUse=   186 1.00D-06 EigRej= -1.00D+00 NBFU=   186
 Precomputing XC quadrature grid using
 IXCGrd= 4 IRadAn=           5 IRanWt=          -1 IRanGd=           0 AccXCQ= 0.00D+00.
 Generated NRdTot=       0 NPtTot=           0 NUsed=           0 NTot=          32
 NSgBfM=   195   195   195   195   195 MxSgAt=    17 MxSgA2=    17.
 Leave Link  302 at Sat Jan  2 00:01:48 2021, MaxMem=  4294967296 cpu:               4.8 elap:               0.2
 (Enter /usr/public/gaussian//g16/l303.exe)
 DipDrv:  MaxL=1.
 Leave Link  303 at Sat Jan  2 00:01:48 2021, MaxMem=  4294967296 cpu:               0.9 elap:               0.1
 (Enter /usr/public/gaussian//g16/l401.exe)
 ExpMin= 1.03D-01 ExpMax= 8.59D+03 ExpMxC= 1.30D+03 IAcc=3 IRadAn=         5 AccDes= 0.00D+00
 Harris functional with IExCor=  402 and IRadAn=       5 diagonalized for initial guess.
 HarFok:  IExCor=  402 AccDes= 0.00D+00 IRadAn=         5 IDoV= 1 UseB2=F ITyADJ=14
 ICtDFT=  3500011 ScaDFX=  1.000000  1.000000  1.000000  1.000000
 FoFCou: FMM=F IPFlag=           0 FMFlag=      100000 FMFlg1=           0
         NFxFlg=           0 DoJE=T BraDBF=F KetDBF=T FulRan=T
         wScrn=  0.000000 ICntrl=       500 IOpCl=  0 I1Cent=   200000004 NGrid=           0
         NMat0=    1 NMatS0=      1 NMatT0=    0 NMatD0=    1 NMtDS0=    0 NMtDT0=    0
 Petite list used in FoFCou.
 Harris En= -384.933923986514    
 JPrj=0 DoOrth=F DoCkMO=F.
 Leave Link  401 at Sat Jan  2 00:01:49 2021, MaxMem=  4294967296 cpu:              12.6 elap:               0.5
 (Enter /usr/public/gaussian//g16/l502.exe)
 Integral symmetry usage will be decided dynamically.
 Closed shell SCF:
 Using DIIS extrapolation, IDIIS=  1040.
 NGot=  4294967296 LenX=  4294883662 LenY=  4294845196
 Requested convergence on RMS density matrix=1.00D-08 within 128 cycles.
 Requested convergence on MAX density matrix=1.00D-06.
 Requested convergence on             energy=1.00D-06.
 No special actions if energy rises.
 Fock matrices will be formed incrementally for  20 cycles.
 Integral accuracy reduced to 1.0D-05 until final iterations.

 Cycle   1  Pass 0  IDiag  1:
 FoFJK:  IHMeth= 1 ICntrl=       0 DoSepK=F KAlg= 0 I1Cent=           0 FoldK=F
 IRaf= 940000000 NMat=       1 IRICut=       1 DoRegI=T DoRafI=F ISym2E= 0 IDoP0=0 IntGTp=1.
 FoFCou: FMM=F IPFlag=           0 FMFlag=      100000 FMFlg1=           0
         NFxFlg=           0 DoJE=F BraDBF=F KetDBF=F FulRan=T
         wScrn=  0.000000 ICntrl=         0 IOpCl=  0 I1Cent=           0 NGrid=           0
         NMat0=    1 NMatS0=      1 NMatT0=    0 NMatD0=    1 NMtDS0=    0 NMtDT0=    0
 Symmetry not used in FoFCou.
 E= -384.718896301441    
 DIIS: error= 3.54D-02 at cycle   1 NSaved=   1.
 NSaved= 1 IEnMin= 1 EnMin= -384.718896301441     IErMin= 1 ErrMin= 3.54D-02
 ErrMax= 3.54D-02  0.00D+00 EMaxC= 1.00D-01 BMatC= 2.13D-01 BMatP= 2.13D-01
 IDIUse=3 WtCom= 6.46D-01 WtEn= 3.54D-01
 Coeff-Com:  0.100D+01
 Coeff-En:   0.100D+01
 Coeff:      0.100D+01
 Gap=     0.248 Goal=   None    Shift=    0.000
 GapD=    0.248 DampG=1.000 DampE=0.500 DampFc=0.5000 IDamp=-1.
 Damping current iteration by 5.00D-01
 RMSDP=4.68D-03 MaxDP=1.05D-01              OVMax= 1.51D-01

 Cycle   2  Pass 0  IDiag  1:
 RMSU=  2.32D-03    CP:  9.81D-01
 E= -384.808083175333     Delta-E=       -0.089186873893 Rises=F Damp=T
 DIIS: error= 8.03D-03 at cycle   2 NSaved=   2.
 NSaved= 2 IEnMin= 2 EnMin= -384.808083175333     IErMin= 2 ErrMin= 8.03D-03
 ErrMax= 8.03D-03  0.00D+00 EMaxC= 1.00D-01 BMatC= 1.36D-02 BMatP= 2.13D-01
 IDIUse=3 WtCom= 9.20D-01 WtEn= 8.03D-02
 Coeff-Com:  0.271D-01 0.973D+00
 Coeff-En:   0.730D-01 0.927D+00
 Coeff:      0.308D-01 0.969D+00
 Gap=     0.284 Goal=   None    Shift=    0.000
 RMSDP=1.15D-03 MaxDP=1.77D-02 DE=-8.92D-02 OVMax= 9.16D-02

 Cycle   3  Pass 0  IDiag  1:
 RMSU=  9.63D-04    CP:  9.79D-01  7.32D-01
 E= -384.908532315881     Delta-E=       -0.100449140548 Rises=F Damp=F
 DIIS: error= 9.56D-03 at cycle   3 NSaved=   3.
 NSaved= 3 IEnMin= 3 EnMin= -384.908532315881     IErMin= 2 ErrMin= 8.03D-03
 ErrMax= 9.56D-03  0.00D+00 EMaxC= 1.00D-01 BMatC= 1.16D-02 BMatP= 1.36D-02
 IDIUse=3 WtCom= 9.04D-01 WtEn= 9.56D-02
 Coeff-Com: -0.541D-01 0.488D+00 0.566D+00
 Coeff-En:   0.000D+00 0.000D+00 0.100D+01
 Coeff:     -0.489D-01 0.442D+00 0.607D+00
 Gap=     0.232 Goal=   None    Shift=    0.000
 RMSDP=7.08D-04 MaxDP=1.56D-02 DE=-1.00D-01 OVMax= 3.52D-02

 Cycle   4  Pass 0  IDiag  1:
 RMSU=  5.00D-04    CP:  9.83D-01  8.69D-01  6.02D-01
 E= -384.914218555760     Delta-E=       -0.005686239879 Rises=F Damp=F
 DIIS: error= 6.35D-03 at cycle   4 NSaved=   4.
 NSaved= 4 IEnMin= 4 EnMin= -384.914218555760     IErMin= 4 ErrMin= 6.35D-03
 ErrMax= 6.35D-03  0.00D+00 EMaxC= 1.00D-01 BMatC= 3.95D-03 BMatP= 1.16D-02
 IDIUse=3 WtCom= 9.37D-01 WtEn= 6.35D-02
 Coeff-Com: -0.338D-01 0.157D+00 0.397D+00 0.479D+00
 Coeff-En:   0.000D+00 0.000D+00 0.291D+00 0.709D+00
 Coeff:     -0.316D-01 0.147D+00 0.391D+00 0.494D+00
 Gap=     0.232 Goal=   None    Shift=    0.000
 RMSDP=3.41D-04 MaxDP=9.99D-03 DE=-5.69D-03 OVMax= 1.59D-02

 Cycle   5  Pass 0  IDiag  1:
 RMSU=  1.24D-04    CP:  9.80D-01  8.43D-01  7.05D-01  4.15D-01
 E= -384.917438699648     Delta-E=       -0.003220143888 Rises=F Damp=F
 DIIS: error= 7.95D-04 at cycle   5 NSaved=   5.
 NSaved= 5 IEnMin= 5 EnMin= -384.917438699648     IErMin= 5 ErrMin= 7.95D-04
 ErrMax= 7.95D-04  0.00D+00 EMaxC= 1.00D-01 BMatC= 9.23D-05 BMatP= 3.95D-03
 IDIUse=3 WtCom= 9.92D-01 WtEn= 7.95D-03
 Coeff-Com: -0.106D-01 0.319D-01 0.125D+00 0.216D+00 0.638D+00
 Coeff-En:   0.000D+00 0.000D+00 0.000D+00 0.000D+00 0.100D+01
 Coeff:     -0.105D-01 0.317D-01 0.124D+00 0.214D+00 0.641D+00
 Gap=     0.231 Goal=   None    Shift=    0.000
 RMSDP=6.16D-05 MaxDP=1.16D-03 DE=-3.22D-03 OVMax= 5.16D-03

 Cycle   6  Pass 0  IDiag  1:
 RMSU=  3.64D-05    CP:  9.80D-01  8.44D-01  7.08D-01  4.90D-01  7.38D-01
 E= -384.917508094878     Delta-E=       -0.000069395231 Rises=F Damp=F
 DIIS: error= 4.77D-04 at cycle   6 NSaved=   6.
 NSaved= 6 IEnMin= 6 EnMin= -384.917508094878     IErMin= 6 ErrMin= 4.77D-04
 ErrMax= 4.77D-04  0.00D+00 EMaxC= 1.00D-01 BMatC= 2.25D-05 BMatP= 9.23D-05
 IDIUse=3 WtCom= 9.95D-01 WtEn= 4.77D-03
 Coeff-Com: -0.427D-02 0.812D-02 0.493D-01 0.997D-01 0.407D+00 0.440D+00
 Coeff-En:   0.000D+00 0.000D+00 0.000D+00 0.000D+00 0.202D+00 0.798D+00
 Coeff:     -0.425D-02 0.808D-02 0.490D-01 0.992D-01 0.406D+00 0.442D+00
 Gap=     0.231 Goal=   None    Shift=    0.000
 RMSDP=2.19D-05 MaxDP=4.37D-04 DE=-6.94D-05 OVMax= 2.19D-03

 Cycle   7  Pass 0  IDiag  1:
 RMSU=  9.42D-06    CP:  9.80D-01  8.45D-01  7.11D-01  4.81D-01  7.85D-01
                    CP:  5.04D-01
 E= -384.917531234127     Delta-E=       -0.000023139249 Rises=F Damp=F
 DIIS: error= 6.16D-05 at cycle   7 NSaved=   7.
 NSaved= 7 IEnMin= 7 EnMin= -384.917531234127     IErMin= 7 ErrMin= 6.16D-05
 ErrMax= 6.16D-05  0.00D+00 EMaxC= 1.00D-01 BMatC= 5.94D-07 BMatP= 2.25D-05
 IDIUse=1 WtCom= 1.00D+00 WtEn= 0.00D+00
 Coeff-Com: -0.138D-02 0.186D-02 0.165D-01 0.358D-01 0.162D+00 0.218D+00
 Coeff-Com:  0.567D+00
 Coeff:     -0.138D-02 0.186D-02 0.165D-01 0.358D-01 0.162D+00 0.218D+00
 Coeff:      0.567D+00
 Gap=     0.231 Goal=   None    Shift=    0.000
 RMSDP=4.89D-06 MaxDP=9.26D-05 DE=-2.31D-05 OVMax= 3.22D-04

 Initial convergence to 1.0D-05 achieved.  Increase integral accuracy.
 Cycle   8  Pass 1  IDiag  1:
 E= -384.917521564342     Delta-E=        0.000009669785 Rises=F Damp=F
 DIIS: error= 2.49D-05 at cycle   1 NSaved=   1.
 NSaved= 1 IEnMin= 1 EnMin= -384.917521564342     IErMin= 1 ErrMin= 2.49D-05
 ErrMax= 2.49D-05  0.00D+00 EMaxC= 1.00D-01 BMatC= 7.37D-08 BMatP= 7.37D-08
 IDIUse=1 WtCom= 1.00D+00 WtEn= 0.00D+00
 Coeff-Com:  0.100D+01
 Coeff:      0.100D+01
 Gap=     0.231 Goal=   None    Shift=    0.000
 RMSDP=4.89D-06 MaxDP=9.26D-05 DE= 9.67D-06 OVMax= 1.89D-04

 Cycle   9  Pass 1  IDiag  1:
 RMSU=  6.86D-06    CP:  1.00D+00
 E= -384.917521507658     Delta-E=        0.000000056684 Rises=F Damp=F
 DIIS: error= 2.23D-05 at cycle   2 NSaved=   2.
 NSaved= 2 IEnMin= 1 EnMin= -384.917521564342     IErMin= 2 ErrMin= 2.23D-05
 ErrMax= 2.23D-05  0.00D+00 EMaxC= 1.00D-01 BMatC= 1.21D-07 BMatP= 7.37D-08
 IDIUse=1 WtCom= 1.00D+00 WtEn= 0.00D+00
 Coeff-Com:  0.567D+00 0.433D+00
 Coeff:      0.567D+00 0.433D+00
 Gap=     0.231 Goal=   None    Shift=    0.000
 RMSDP=1.96D-06 MaxDP=4.83D-05 DE= 5.67D-08 OVMax= 1.53D-04

 Cycle  10  Pass 1  IDiag  1:
 RMSU=  1.79D-06    CP:  1.00D+00  8.82D-01
 E= -384.917521626087     Delta-E=       -0.000000118428 Rises=F Damp=F
 DIIS: error= 7.83D-06 at cycle   3 NSaved=   3.
 NSaved= 3 IEnMin= 3 EnMin= -384.917521626087     IErMin= 3 ErrMin= 7.83D-06
 ErrMax= 7.83D-06  0.00D+00 EMaxC= 1.00D-01 BMatC= 5.43D-09 BMatP= 7.37D-08
 IDIUse=1 WtCom= 1.00D+00 WtEn= 0.00D+00
 Coeff-Com:  0.178D+00 0.207D+00 0.615D+00
 Coeff:      0.178D+00 0.207D+00 0.615D+00
 Gap=     0.231 Goal=   None    Shift=    0.000
 RMSDP=5.10D-07 MaxDP=1.32D-05 DE=-1.18D-07 OVMax= 4.54D-05

 Cycle  11  Pass 1  IDiag  1:
 RMSU=  4.14D-07    CP:  1.00D+00  9.00D-01  8.49D-01
 E= -384.917521630130     Delta-E=       -0.000000004043 Rises=F Damp=F
 DIIS: error= 4.17D-06 at cycle   4 NSaved=   4.
 NSaved= 4 IEnMin= 4 EnMin= -384.917521630130     IErMin= 4 ErrMin= 4.17D-06
 ErrMax= 4.17D-06  0.00D+00 EMaxC= 1.00D-01 BMatC= 1.88D-09 BMatP= 5.43D-09
 IDIUse=1 WtCom= 1.00D+00 WtEn= 0.00D+00
 Coeff-Com:  0.606D-02 0.516D-01 0.405D+00 0.537D+00
 Coeff:      0.606D-02 0.516D-01 0.405D+00 0.537D+00
 Gap=     0.231 Goal=   None    Shift=    0.000
 RMSDP=2.12D-07 MaxDP=5.32D-06 DE=-4.04D-09 OVMax= 1.68D-05

 Cycle  12  Pass 1  IDiag  1:
 RMSU=  5.96D-08    CP:  1.00D+00  9.02D-01  8.79D-01  5.29D-01
 E= -384.917521632077     Delta-E=       -0.000000001947 Rises=F Damp=F
 DIIS: error= 6.14D-07 at cycle   5 NSaved=   5.
 NSaved= 5 IEnMin= 5 EnMin= -384.917521632077     IErMin= 5 ErrMin= 6.14D-07
 ErrMax= 6.14D-07  0.00D+00 EMaxC= 1.00D-01 BMatC= 4.51D-11 BMatP= 1.88D-09
 IDIUse=1 WtCom= 1.00D+00 WtEn= 0.00D+00
 Coeff-Com: -0.106D-02 0.230D-01 0.203D+00 0.290D+00 0.485D+00
 Coeff:     -0.106D-02 0.230D-01 0.203D+00 0.290D+00 0.485D+00
 Gap=     0.231 Goal=   None    Shift=    0.000
 RMSDP=3.58D-08 MaxDP=1.00D-06 DE=-1.95D-09 OVMax= 1.79D-06

 Cycle  13  Pass 1  IDiag  1:
 RMSU=  2.45D-08    CP:  1.00D+00  9.02D-01  8.80D-01  5.66D-01  6.55D-01
 E= -384.917521632103     Delta-E=       -0.000000000026 Rises=F Damp=F
 DIIS: error= 2.02D-07 at cycle   6 NSaved=   6.
 NSaved= 6 IEnMin= 6 EnMin= -384.917521632103     IErMin= 6 ErrMin= 2.02D-07
 ErrMax= 2.02D-07  0.00D+00 EMaxC= 1.00D-01 BMatC= 4.88D-12 BMatP= 4.51D-11
 IDIUse=1 WtCom= 1.00D+00 WtEn= 0.00D+00
 Coeff-Com: -0.149D-02 0.721D-02 0.691D-01 0.105D+00 0.284D+00 0.537D+00
 Coeff:     -0.149D-02 0.721D-02 0.691D-01 0.105D+00 0.284D+00 0.537D+00
 Gap=     0.231 Goal=   None    Shift=    0.000
 RMSDP=1.03D-08 MaxDP=2.36D-07 DE=-2.64D-11 OVMax= 5.22D-07

 Cycle  14  Pass 1  IDiag  1:
 RMSU=  6.10D-09    CP:  1.00D+00  9.02D-01  8.79D-01  5.61D-01  7.11D-01
                    CP:  7.15D-01
 E= -384.917521632114     Delta-E=       -0.000000000011 Rises=F Damp=F
 DIIS: error= 1.93D-08 at cycle   7 NSaved=   7.
 NSaved= 7 IEnMin= 7 EnMin= -384.917521632114     IErMin= 7 ErrMin= 1.93D-08
 ErrMax= 1.93D-08  0.00D+00 EMaxC= 1.00D-01 BMatC= 1.02D-13 BMatP= 4.88D-12
 IDIUse=1 WtCom= 1.00D+00 WtEn= 0.00D+00
 Coeff-Com: -0.473D-03 0.153D-02 0.152D-01 0.239D-01 0.817D-01 0.204D+00
 Coeff-Com:  0.674D+00
 Coeff:     -0.473D-03 0.153D-02 0.152D-01 0.239D-01 0.817D-01 0.204D+00
 Coeff:      0.674D+00
 Gap=     0.231 Goal=   None    Shift=    0.000
 RMSDP=2.16D-09 MaxDP=5.82D-08 DE=-1.11D-11 OVMax= 1.29D-07

 SCF Done:  E(RB3LYP) =  -384.917521632     A.U. after   14 cycles
            NFock= 14  Conv=0.22D-08     -V/T= 2.0040
 KE= 3.833722280310D+02 PE=-1.709432491184D+03 EE= 5.345494060378D+02
 Leave Link  502 at Sat Jan  2 00:01:55 2021, MaxMem=  4294967296 cpu:             159.9 elap:               5.8
 (Enter /usr/public/gaussian//g16/l601.exe)
 Copying SCF densities to generalized density rwf, IOpCl= 0 IROHF=0.

 **********************************************************************

            Population analysis using the SCF density.

 **********************************************************************

 Orbital symmetries:
       Occupied  (A) (A) (A) (A) (A) (A) (A) (A) (A) (A) (A) (A)
                 (A) (A) (A) (A) (A) (A) (A) (A) (A) (A) (A) (A)
                 (A) (A) (A) (A) (A) (A) (A) (A)
       Virtual   (A) (A) (A) (A) (A) (A) (A) (A) (A) (A) (A) (A)
                 (A) (A) (A) (A) (A) (A) (A) (A) (A) (A) (A) (A)
                 (A) (A) (A) (A) (A) (A) (A) (A) (A) (A) (A) (A)
                 (A) (A) (A) (A) (A) (A) (A) (A) (A) (A) (A) (A)
                 (A) (A) (A) (A) (A) (A) (A) (A) (A) (A) (A) (A)
                 (A) (A) (A) (A) (A) (A) (A) (A) (A) (A) (A) (A)
                 (A) (A) (A) (A) (A) (A) (A) (A) (A) (A) (A) (A)
                 (A) (A) (A) (A) (A) (A) (A) (A) (A) (A) (A) (A)
                 (A) (A) (A) (A) (A) (A) (A) (A) (A) (A) (A) (A)
                 (A) (A) (A) (A) (A) (A) (A) (A) (A) (A) (A) (A)
                 (A) (A) (A) (A) (A) (A) (A) (A) (A) (A) (A) (A)
                 (A) (A) (A) (A) (A) (A) (A) (A) (A) (A) (A) (A)
                 (A) (A) (A) (A) (A) (A) (A) (A) (A) (A)
 The electronic state is 1-A.
 Alpha  occ. eigenvalues --  -19.12477 -10.23868 -10.23134 -10.18843 -10.17691
 Alpha  occ. eigenvalues --  -10.17637 -10.17596 -10.17509 -10.17463  -1.09472
 Alpha  occ. eigenvalues --   -0.85801  -0.76419  -0.74896  -0.66789  -0.64922
 Alpha  occ. eigenvalues --   -0.60954  -0.58650  -0.53602  -0.50773  -0.47719
 Alpha  occ. eigenvalues --   -0.45477  -0.45316  -0.42626  -0.40662  -0.39062
 Alpha  occ. eigenvalues --   -0.37415  -0.35496  -0.34810  -0.32447  -0.27329
 Alpha  occ. eigenvalues --   -0.25664  -0.24687
 Alpha virt. eigenvalues --   -0.01543  -0.01171   0.04816   0.05696   0.06472
 Alpha virt. eigenvalues --    0.07965   0.09198   0.09580   0.10257   0.11635
 Alpha virt. eigenvalues --    0.13871   0.15171   0.16604   0.22390   0.23395
 Alpha virt. eigenvalues --    0.27171   0.27531   0.28798   0.29753   0.32051
 Alpha virt. eigenvalues --    0.36435   0.38208   0.39017   0.39659   0.40235
 Alpha virt. eigenvalues --    0.41740   0.42667   0.43007   0.43836   0.44632
 Alpha virt. eigenvalues --    0.45737   0.46538   0.47346   0.49151   0.52485
 Alpha virt. eigenvalues --    0.53382   0.55121   0.57052   0.57964   0.60432
 Alpha virt. eigenvalues --    0.60793   0.60893   0.62268   0.62954   0.63209
 Alpha virt. eigenvalues --    0.65717   0.66402   0.71112   0.72817   0.73361
 Alpha virt. eigenvalues --    0.74519   0.77125   0.80027   0.80813   0.84180
 Alpha virt. eigenvalues --    0.84488   0.85484   0.91581   0.94272   0.99823
 Alpha virt. eigenvalues --    1.01521   1.03373   1.06796   1.09607   1.10890
 Alpha virt. eigenvalues --    1.20078   1.21739   1.22400   1.24549   1.26367
 Alpha virt. eigenvalues --    1.28424   1.31053   1.39792   1.41761   1.44310
 Alpha virt. eigenvalues --    1.46735   1.48161   1.50329   1.54423   1.56382
 Alpha virt. eigenvalues --    1.62023   1.64083   1.65936   1.70801   1.71757
 Alpha virt. eigenvalues --    1.75937   1.78299   1.82045   1.83489   1.86753
 Alpha virt. eigenvalues --    1.89860   1.91371   1.92031   1.92233   1.95068
 Alpha virt. eigenvalues --    1.97171   2.09730   2.12485   2.23306   2.24065
 Alpha virt. eigenvalues --    2.24696   2.25951   2.26567   2.28694   2.32472
 Alpha virt. eigenvalues --    2.34790   2.36605   2.45219   2.53096   2.58849
 Alpha virt. eigenvalues --    2.64386   2.67562   2.68780   2.72381   2.74393
 Alpha virt. eigenvalues --    2.77109   2.83239   2.84380   2.88801   3.01868
 Alpha virt. eigenvalues --    3.02434   3.04434   3.07224   3.10262   3.13582
 Alpha virt. eigenvalues --    3.19161   3.23344   3.26427   3.28544   3.29357
 Alpha virt. eigenvalues --    3.31125   3.37823   3.46600   3.53377   3.55637
 Alpha virt. eigenvalues --    3.60002   3.67009   3.83570   3.95060   4.00110
 Alpha virt. eigenvalues --    4.36214   4.77877   4.92509   5.30493   5.45900
 Alpha virt. eigenvalues --   23.20018  23.52208  23.76395  23.79318  23.82689
 Alpha virt. eigenvalues --   24.01390  24.02670  24.12594  49.87315
          Condensed to atoms (all electrons):
               1          2          3          4          5          6
     1  O    8.023906   0.187431  -0.037986  -0.028033   0.176118  -0.022168
     2  C    0.187431   5.191145   0.363031   0.375195   0.226288  -0.016480
     3  H   -0.037986   0.363031   0.494831  -0.033549  -0.008591   0.001061
     4  H   -0.028033   0.375195  -0.033549   0.506233  -0.028514  -0.000926
     5  C    0.176118   0.226288  -0.008591  -0.028514   5.095815   0.380109
     6  H   -0.022168  -0.016480   0.001061  -0.000926   0.380109   0.467602
     7  C   -0.050559  -0.060982   0.006025   0.000364   0.391622  -0.037305
     8  C    0.005231   0.000672  -0.001650   0.000378  -0.059665  -0.002018
     9  C    0.000893  -0.003510   0.002185   0.000461  -0.055615   0.004387
    10  C   -0.000172  -0.000188   0.000091  -0.000011   0.003755  -0.000211
    11  H   -0.000046   0.001175  -0.000180   0.000024  -0.002816   0.002282
    12  C    0.001629  -0.000496  -0.000585   0.000052   0.004448  -0.000054
    13  H    0.021785   0.000879  -0.002321   0.000275  -0.013170   0.000580
    14  C   -0.000001   0.000084  -0.000042  -0.000003   0.000396   0.000036
    15  H    0.000003   0.000000   0.000004  -0.000000  -0.000419  -0.000008
    16  H   -0.000033   0.000013   0.000013  -0.000001  -0.000330   0.000012
    17  H    0.000000   0.000001  -0.000003   0.000000   0.000050  -0.000001
               7          8          9         10         11         12
     1  O   -0.050559   0.005231   0.000893  -0.000172  -0.000046   0.001629
     2  C   -0.060982   0.000672  -0.003510  -0.000188   0.001175  -0.000496
     3  H    0.006025  -0.001650   0.002185   0.000091  -0.000180  -0.000585
     4  H    0.000364   0.000378   0.000461  -0.000011   0.000024   0.000052
     5  C    0.391622  -0.059665  -0.055615   0.003755  -0.002816   0.004448
     6  H   -0.037305  -0.002018   0.004387  -0.000211   0.002282  -0.000054
     7  C    4.962778   0.465260   0.514981  -0.021554  -0.056661  -0.038901
     8  C    0.465260   5.035385  -0.063594   0.525514   0.400809  -0.032033
     9  C    0.514981  -0.063594   5.035822  -0.035060   0.006884   0.493088
    10  C   -0.021554   0.525514  -0.035060   4.923209  -0.043643  -0.048053
    11  H   -0.056661   0.400809   0.006884  -0.043643   0.503742  -0.000161
    12  C   -0.038901  -0.032033   0.493088  -0.048053  -0.000161   4.965892
    13  H   -0.042654   0.008288   0.386818  -0.000762  -0.000203  -0.042595
    14  C   -0.037481  -0.050009  -0.048520   0.533751   0.006356   0.527903
    15  H    0.005974  -0.044961  -0.000190   0.398362  -0.006811   0.006384
    16  H    0.005523   0.000029  -0.043482   0.006143   0.000084   0.398407
    17  H   -0.000258   0.006691   0.006115  -0.044330  -0.000367  -0.044499
              13         14         15         16         17
     1  O    0.021785  -0.000001   0.000003  -0.000033   0.000000
     2  C    0.000879   0.000084   0.000000   0.000013   0.000001
     3  H   -0.002321  -0.000042   0.000004   0.000013  -0.000003
     4  H    0.000275  -0.000003  -0.000000  -0.000001   0.000000
     5  C   -0.013170   0.000396  -0.000419  -0.000330   0.000050
     6  H    0.000580   0.000036  -0.000008   0.000012  -0.000001
     7  C   -0.042654  -0.037481   0.005974   0.005523  -0.000258
     8  C    0.008288  -0.050009  -0.044961   0.000029   0.006691
     9  C    0.386818  -0.048520  -0.000190  -0.043482   0.006115
    10  C   -0.000762   0.533751   0.398362   0.006143  -0.044330
    11  H   -0.000203   0.006356  -0.006811   0.000084  -0.000367
    12  C   -0.042595   0.527903   0.006384   0.398407  -0.044499
    13  H    0.473496   0.006203   0.000074  -0.006208  -0.000324
    14  C    0.006203   4.939797  -0.043983  -0.043901   0.398622
    15  H    0.000074  -0.043983   0.499022  -0.000388  -0.006635
    16  H   -0.006208  -0.043901  -0.000388   0.494697  -0.006580
    17  H   -0.000324   0.398622  -0.006635  -0.006580   0.498930
 Mulliken charges:
               1
     1  O   -0.277997
     2  C   -0.264257
     3  H    0.217667
     4  H    0.208057
     5  C   -0.109480
     6  H    0.223104
     7  C   -0.006172
     8  C   -0.194325
     9  C   -0.201662
    10  C   -0.196842
    11  H    0.189533
    12  C   -0.190425
    13  H    0.209841
    14  C   -0.189206
    15  H    0.193574
    16  H    0.196003
    17  H    0.192587
 Sum of Mulliken charges =  -0.00000
 Mulliken charges with hydrogens summed into heavy atoms:
               1
     1  O   -0.277997
     2  C    0.161466
     5  C    0.113624
     7  C   -0.006172
     8  C   -0.004792
     9  C    0.008179
    10  C   -0.003268
    12  C    0.005578
    14  C    0.003381
 Electronic spatial extent (au):  <R**2>=           1211.6566
 Charge=             -0.0000 electrons
 Dipole moment (field-independent basis, Debye):
    X=             -0.3672    Y=             -1.1345    Z=              0.8301  Tot=              1.4529
 Quadrupole moment (field-independent basis, Debye-Ang):
   XX=            -49.3518   YY=            -49.1435   ZZ=            -55.3044
   XY=             -3.5910   XZ=              1.7813   YZ=              1.8633
 Traceless Quadrupole moment (field-independent basis, Debye-Ang):
   XX=              1.9148   YY=              2.1231   ZZ=             -4.0378
   XY=             -3.5910   XZ=              1.7813   YZ=              1.8633
 Octapole moment (field-independent basis, Debye-Ang**2):
  XXX=              0.1535  YYY=              3.0385  ZZZ=             -1.4264  XYY=             -2.5434
  XXY=             -8.9844  XXZ=              9.3699  XZZ=             11.5746  YZZ=              0.5044
  YYZ=             -1.1414  XYZ=              3.9654
 Hexadecapole moment (field-independent basis, Debye-Ang**3):
 XXXX=          -1100.8705 YYYY=           -319.7614 ZZZZ=           -108.2934 XXXY=            -24.1321
 XXXZ=             10.4683 YYYX=              4.3133 YYYZ=              1.2757 ZZZX=             -3.2844
 ZZZY=              2.5658 XXYY=           -243.0534 XXZZ=           -223.6102 YYZZ=            -80.7727
 XXYZ=              7.8327 YYXZ=             -3.8363 ZZXY=              0.7080
 N-N= 4.065933354836D+02 E-N=-1.709432495179D+03  KE= 3.833722280310D+02
 No NMR shielding tensors so no spin-rotation constants.
 Leave Link  601 at Sat Jan  2 00:01:55 2021, MaxMem=  4294967296 cpu:               3.8 elap:               0.2
 (Enter /usr/public/gaussian//g16/l701.exe)
 ... and contract with generalized density number  0.
 Compute integral first derivatives.
 Leave Link  701 at Sat Jan  2 00:01:55 2021, MaxMem=  4294967296 cpu:               3.6 elap:               0.2
 (Enter /usr/public/gaussian//g16/l702.exe)
 L702 exits ... SP integral derivatives will be done elsewhere.
 Leave Link  702 at Sat Jan  2 00:01:55 2021, MaxMem=  4294967296 cpu:               1.2 elap:               0.1
 (Enter /usr/public/gaussian//g16/l703.exe)
 Integral derivatives from FoFJK, PRISM(SPDF).
 Compute integral first derivatives, UseDBF=F ICtDFT=           0.
 Calling FoFJK, ICntrl=      2127 FMM=F ISym2X=0 I1Cent= 0 IOpClX= 0 NMat=1 NMatS=1 NMatT=0.
 FoFJK:  IHMeth= 1 ICntrl=    2127 DoSepK=F KAlg= 0 I1Cent=           0 FoldK=F
 IRaf=         0 NMat=       1 IRICut=       1 DoRegI=T DoRafI=F ISym2E= 0 IDoP0=0 IntGTp=1.
 FoFCou: FMM=F IPFlag=           0 FMFlag=      100000 FMFlg1=         800
         NFxFlg=           0 DoJE=F BraDBF=F KetDBF=F FulRan=T
         wScrn=  0.000000 ICntrl=      2127 IOpCl=  0 I1Cent=           0 NGrid=           0
         NMat0=    1 NMatS0=      1 NMatT0=    0 NMatD0=    1 NMtDS0=    0 NMtDT0=    0
 Symmetry not used in FoFCou.
 Leave Link  703 at Sat Jan  2 00:01:56 2021, MaxMem=  4294967296 cpu:              34.1 elap:               1.2
 (Enter /usr/public/gaussian//g16/l716.exe)
 Dipole        =-1.44477200D-01-4.46341870D-01 3.26579316D-01
 ***** Axes restored to original set *****
 -------------------------------------------------------------------
 Center     Atomic                   Forces (Hartrees/Bohr)
 Number     Number              X              Y              Z
 -------------------------------------------------------------------
      1        8          -0.012962272    0.025304454    0.014545949
      2        6          -0.017727441   -0.000889444    0.002294480
      3        1          -0.003935494   -0.021707968    0.005047723
      4        1           0.012948414    0.001853701   -0.015769335
      5        6           0.007481888    0.019974828    0.004203640
      6        1           0.010202658   -0.006046476   -0.018936705
      7        6           0.008663242   -0.010800729    0.006147066
      8        6           0.005344302    0.009366107   -0.001691002
      9        6           0.002507371   -0.005770394   -0.000176287
     10        6          -0.005428191    0.003052093    0.000035347
     11        1          -0.001585125   -0.001739875    0.000776324
     12        6          -0.001509628   -0.009782245    0.001215709
     13        1          -0.003686704   -0.002768369    0.001969250
     14        6          -0.003434026   -0.001083121    0.000782187
     15        1           0.001384318   -0.001502793   -0.000017436
     16        1          -0.000340513    0.002019128   -0.000102156
     17        1           0.002077203    0.000521104   -0.000324755
 -------------------------------------------------------------------
 Cartesian Forces:  Max     0.025304454 RMS     0.008664234
 Leave Link  716 at Sat Jan  2 00:01:56 2021, MaxMem=  4294967296 cpu:               0.6 elap:               0.0
 (Enter /usr/public/gaussian//g16/l103.exe)

 GradGradGradGradGradGradGradGradGradGradGradGradGradGradGradGradGradGrad
 Berny optimization.
 FormGI is forming the generalized inverse of G from B-inverse, IUseBI=4.
 Internal  Forces:  Max     0.020844283 RMS     0.006385301
 Search for a local minimum.
 Step number   1 out of a maximum of   90
 All quantities printed in internal units (Hartrees-Bohrs-Radians)
 RMS Force = .63853D-02 SwitMx=.10000D-02 MixMth= 1
 Mixed Optimization -- RFO/linear search
 Second derivative matrix not updated -- first step.
 ITU=  0
     Eigenvalues ---    0.00640   0.01450   0.02002   0.02035   0.02072
     Eigenvalues ---    0.02095   0.02119   0.02121   0.02125   0.02131
     Eigenvalues ---    0.02367   0.03198   0.04025   0.15753   0.16000
     Eigenvalues ---    0.16000   0.16000   0.16000   0.16000   0.16000
     Eigenvalues ---    0.16000   0.17618   0.20314   0.22000   0.22000
     Eigenvalues ---    0.23474   0.25000   0.31229   0.31397   0.32535
     Eigenvalues ---    0.32590   0.32665   0.35605   0.35697   0.35713
     Eigenvalues ---    0.35716   0.35736   0.37885   0.41119   0.41533
     Eigenvalues ---    0.43848   0.44745   0.45541   0.45887   0.46102
 RFO step:  Lambda=-2.08841154D-02 EMin= 6.39823925D-03
 Linear search not attempted -- first point.
 Iteration  1 RMS(Cart)=  0.05393111 RMS(Int)=  0.01117011
 Iteration  2 RMS(Cart)=  0.01284535 RMS(Int)=  0.00286791
 Iteration  3 RMS(Cart)=  0.00023355 RMS(Int)=  0.00285665
 Iteration  4 RMS(Cart)=  0.00000112 RMS(Int)=  0.00285665
 Iteration  5 RMS(Cart)=  0.00000001 RMS(Int)=  0.00285665
 ITry= 1 IFail=0 DXMaxC= 2.97D-01 DCOld= 1.00D+10 DXMaxT= 3.00D-01 DXLimC= 3.00D+00 Rises=F
 Variable       Old X    -DE/DX   Delta X   Delta X   Delta X     New X
                                 (Linear)    (Quad)   (Total)
    R1        2.65400   0.01747   0.00000   0.04893   0.04846   2.70245
    R2        2.66234   0.02084   0.00000   0.04673   0.04626   2.70860
    R3        2.09877  -0.01527   0.00000  -0.04411  -0.04411   2.05466
    R4        2.09644  -0.01334   0.00000  -0.03838  -0.03838   2.05805
    R5        2.81001   0.00012   0.00000  -0.01626  -0.01534   2.79467
    R6        2.09778  -0.01423   0.00000  -0.04104  -0.04104   2.05673
    R7        2.85261  -0.00461   0.00000  -0.01378  -0.01378   2.83883
    R8        2.65297  -0.00388   0.00000  -0.00860  -0.00860   2.64437
    R9        2.66493  -0.01366   0.00000  -0.03027  -0.03027   2.63466
   R10        2.64267  -0.00502   0.00000  -0.01025  -0.01025   2.63242
   R11        2.04704   0.00209   0.00000   0.00553   0.00553   2.05258
   R12        2.64250  -0.00413   0.00000  -0.00883  -0.00883   2.63367
   R13        2.04497   0.00086   0.00000   0.00226   0.00226   2.04723
   R14        2.63948  -0.00404   0.00000  -0.00780  -0.00780   2.63168
   R15        2.04558   0.00203   0.00000   0.00537   0.00537   2.05096
   R16        2.63976  -0.00296   0.00000  -0.00578  -0.00578   2.63398
   R17        2.04528   0.00191   0.00000   0.00505   0.00505   2.05033
   R18        2.04533   0.00216   0.00000   0.00571   0.00571   2.05104
    A1        1.89358   0.00478   0.00000   0.10603   0.10471   1.99830
    A2        1.89846   0.00876   0.00000   0.10813   0.10285   2.00131
    A3        2.14534  -0.01023   0.00000  -0.04684  -0.06084   2.08450
    A4        2.07300   0.00013   0.00000  -0.02556  -0.03742   2.03557
    A5        2.04768   0.00700   0.00000   0.02133   0.01107   2.05875
    A6        1.87310   0.00228   0.00000   0.08648   0.08760   1.96070
    A7        1.94754   0.00848   0.00000   0.07510   0.07169   2.01923
    A8        2.12759  -0.00673   0.00000  -0.05621  -0.06368   2.06391
    A9        2.03808   0.01540   0.00000   0.05830   0.05213   2.09021
   A10        2.10077  -0.01070   0.00000  -0.04072  -0.04824   2.05253
   A11        2.06282   0.00697   0.00000   0.02657   0.02657   2.08939
   A12        2.14328  -0.00786   0.00000  -0.02817  -0.02818   2.11510
   A13        2.07709   0.00089   0.00000   0.00161   0.00161   2.07870
   A14        2.10265   0.00121   0.00000   0.00476   0.00476   2.10741
   A15        2.09961  -0.00196   0.00000  -0.00986  -0.00986   2.08975
   A16        2.08092   0.00075   0.00000   0.00511   0.00510   2.08603
   A17        2.09941  -0.00023   0.00000  -0.00253  -0.00254   2.09687
   A18        2.11409  -0.00486   0.00000  -0.02622  -0.02622   2.08787
   A19        2.06969   0.00509   0.00000   0.02876   0.02876   2.09845
   A20        2.09625  -0.00134   0.00000  -0.00389  -0.00389   2.09236
   A21        2.09391   0.00044   0.00000   0.00067   0.00067   2.09459
   A22        2.09302   0.00090   0.00000   0.00322   0.00322   2.09624
   A23        2.09687   0.00164   0.00000   0.00714   0.00713   2.10400
   A24        2.09338  -0.00156   0.00000  -0.00765  -0.00766   2.08573
   A25        2.09294  -0.00008   0.00000   0.00051   0.00051   2.09344
   A26        2.09410  -0.00218   0.00000  -0.00710  -0.00710   2.08700
   A27        2.09481   0.00091   0.00000   0.00254   0.00254   2.09735
   A28        2.09428   0.00127   0.00000   0.00455   0.00455   2.09883
    D1       -3.03185   0.01798   0.00000   0.31569   0.31246  -2.71940
    D2       -0.08535   0.00524   0.00000   0.08925   0.08773   0.00238
    D3       -0.08238  -0.00034   0.00000   0.02789   0.02781  -0.05457
    D4        2.86412  -0.01308   0.00000  -0.19855  -0.19691   2.66721
    D5       -3.13093  -0.00272   0.00000   0.03362   0.03299  -3.09794
    D6        0.01403  -0.00282   0.00000   0.03082   0.03018   0.04421
    D7       -2.01532   0.00729   0.00000   0.09009   0.09061  -1.92471
    D8        1.12964   0.00719   0.00000   0.08729   0.08780   1.21744
    D9        0.93435  -0.00484   0.00000  -0.13473  -0.13461   0.79975
   D10       -2.20387  -0.00494   0.00000  -0.13754  -0.13741  -2.34129
   D11       -3.13853  -0.00037   0.00000  -0.00951  -0.00959   3.13506
   D12        0.00130  -0.00023   0.00000  -0.00604  -0.00611  -0.00481
   D13       -0.00017  -0.00029   0.00000  -0.00688  -0.00690  -0.00708
   D14        3.13966  -0.00015   0.00000  -0.00341  -0.00342   3.13624
   D15        3.14028   0.00038   0.00000   0.00940   0.00936  -3.13354
   D16       -0.00330   0.00060   0.00000   0.01471   0.01460   0.01130
   D17        0.00208   0.00027   0.00000   0.00653   0.00653   0.00861
   D18       -3.14150   0.00049   0.00000   0.01183   0.01176  -3.12974
   D19       -0.00135   0.00015   0.00000   0.00358   0.00357   0.00222
   D20        3.14000   0.00011   0.00000   0.00266   0.00267  -3.14052
   D21       -3.14120   0.00002   0.00000   0.00016   0.00011  -3.14109
   D22        0.00015  -0.00003   0.00000  -0.00076  -0.00079  -0.00064
   D23       -0.00248  -0.00012   0.00000  -0.00290  -0.00290  -0.00539
   D24        3.13963   0.00010   0.00000   0.00237   0.00238  -3.14118
   D25        3.14105  -0.00032   0.00000  -0.00801  -0.00811   3.13294
   D26       -0.00003  -0.00011   0.00000  -0.00274  -0.00282  -0.00285
   D27        0.00097   0.00000   0.00000   0.00016   0.00017   0.00114
   D28       -3.14101  -0.00012   0.00000  -0.00273  -0.00274   3.13943
   D29       -3.14038   0.00005   0.00000   0.00108   0.00107  -3.13931
   D30        0.00083  -0.00007   0.00000  -0.00182  -0.00184  -0.00101
   D31        0.00095  -0.00002   0.00000  -0.00050  -0.00050   0.00044
   D32       -3.14026   0.00010   0.00000   0.00240   0.00241  -3.13785
   D33       -3.14117  -0.00024   0.00000  -0.00577  -0.00581   3.13621
   D34        0.00081  -0.00012   0.00000  -0.00287  -0.00290  -0.00209
         Item               Value     Threshold  Converged?
 Maximum Force            0.020844     0.000450     NO 
 RMS     Force            0.006385     0.000300     NO 
 Maximum Displacement     0.297240     0.001800     NO 
 RMS     Displacement     0.061568     0.001200     NO 
 Predicted change in Energy=-1.315417D-02
 Lowest energy point so far.  Saving SCF results.
 GradGradGradGradGradGradGradGradGradGradGradGradGradGradGradGradGradGrad

 Leave Link  103 at Sat Jan  2 00:01:56 2021, MaxMem=  4294967296 cpu:               1.9 elap:               0.1
 (Enter /usr/public/gaussian//g16/l202.exe)
                          Input orientation:                          
 ---------------------------------------------------------------------
 Center     Atomic      Atomic             Coordinates (Angstroms)
 Number     Number       Type             X           Y           Z
 ---------------------------------------------------------------------
      1          8           0        0.544701    0.217191   -1.355938
      2          6           0        0.535605   -0.791534   -2.369599
      3          1           0        0.848742   -0.446312   -3.351912
      4          1           0       -0.279602   -1.509222   -2.289325
      5          6           0        1.564282   -0.789039   -1.307110
      6          1           0        1.436803   -1.466633   -0.464983
      7          6           0        2.957151   -0.320575   -1.618862
      8          6           0        4.009116   -1.242925   -1.647029
      9          6           0        3.225388    1.022105   -1.881648
     10          6           0        5.307643   -0.833365   -1.941279
     11          1           0        3.812604   -2.290713   -1.438933
     12          6           0        4.524288    1.431315   -2.177863
     13          1           0        2.419247    1.745192   -1.851231
     14          6           0        5.568240    0.508273   -2.208676
     15          1           0        6.114433   -1.559056   -1.960849
     16          1           0        4.721410    2.478857   -2.380324
     17          1           0        6.578579    0.832802   -2.436509
 ---------------------------------------------------------------------
                    Distance matrix (angstroms):
                    1          2          3          4          5
     1  O    0.000000
     2  C    1.430076   0.000000
     3  H    2.125228   1.087277   0.000000
     4  H    2.128659   1.089075   1.879370   0.000000
     5  C    1.433328   1.478873   2.193325   2.209823   0.000000
     6  H    2.103548   2.212574   3.117889   2.505212   1.088376
     7  C    2.485607   2.578623   2.732154   3.512688   1.502243
     8  C    3.770789   3.576471   3.678204   4.344717   2.509735
     9  C    2.847866   3.280597   3.156956   4.342669   2.523808
    10  C    4.912425   4.791405   4.692707   5.638726   3.796958
    11  H    4.120154   3.721882   3.980676   4.252064   2.706909
    12  C    4.241081   4.570274   4.291097   5.633519   3.801291
    13  H    2.468608   3.201842   3.085648   4.250521   2.729352
    14  C    5.103708   5.200270   4.948928   6.186603   4.304361
    15  H    5.877319   5.646192   5.558844   6.402660   4.660920
    16  H    4.858951   5.311924   4.949562   6.397123   4.668875
    17  H    6.160706   6.257833   5.941812   7.248544   5.389721
                    6          7          8          9         10
     6  H    0.000000
     7  C    2.226285   0.000000
     8  C    2.839731   1.399340   0.000000
     9  C    3.376358   1.394201   2.408243   0.000000
    10  C    4.190928   2.427286   1.393017   2.789644   0.000000
    11  H    2.696686   2.155370   1.086177   3.393462   2.147407
    12  C    4.567781   2.416095   2.774661   1.393677   2.407986
    13  H    3.633552   2.147261   3.390904   1.083348   3.872971
    14  C    4.899948   2.802259   2.411018   2.420728   1.392625
    15  H    4.911861   3.408697   2.151924   3.874950   1.085319
    16  H    5.479422   3.395476   3.859631   2.146832   3.392234
    17  H    5.967594   3.887617   3.396184   3.404056   2.153287
                   11         12         13         14         15
    11  H    0.000000
    12  C    3.860830   0.000000
    13  H    4.289518   2.153231   0.000000
    14  C    3.392505   1.393841   3.402042   0.000000
    15  H    2.471059   3.393814   4.958272   2.152578   0.000000
    16  H    4.945801   1.084985   2.473491   2.151694   4.291994
    17  H    4.289770   2.155279   4.298261   1.085363   2.482472
                   16         17
    16  H    0.000000
    17  H    2.482283   0.000000
 Stoichiometry    C8H8O
 Framework group  C1[X(C8H8O)]
 Deg. of freedom    45
 Full point group                 C1      NOp   1
 RotChk:  IX=0 Diff= 4.92D-02
 Largest Abelian subgroup         C1      NOp   1
 Largest concise Abelian subgroup C1      NOp   1
                         Standard orientation:                         
 ---------------------------------------------------------------------
 Center     Atomic      Atomic             Coordinates (Angstroms)
 Number     Number       Type             X           Y           Z
 ---------------------------------------------------------------------
      1          8           0        2.473996    0.653257   -0.379204
      2          6           0        2.557077   -0.219913    0.750304
      3          1           0        2.123409    0.181272    1.663077
      4          1           0        3.473651   -0.805499    0.805662
      5          6           0        1.621953   -0.499182   -0.360830
      6          1           0        1.911488   -1.239622   -1.104120
      7          6           0        0.155513   -0.222297   -0.188727
      8          6           0       -0.746702   -1.288770   -0.106280
      9          6           0       -0.328344    1.082854   -0.109613
     10          6           0       -2.110046   -1.056890    0.061107
     11          1           0       -0.381520   -2.309622   -0.171741
     12          6           0       -1.692151    1.314556    0.059743
     13          1           0        0.361281    1.915076   -0.183555
     14          6           0       -2.586560    0.248959    0.145351
     15          1           0       -2.799111   -1.892998    0.124589
     16          1           0       -2.057476    2.334431    0.119618
     17          1           0       -3.648120    0.435005    0.273761
 ---------------------------------------------------------------------
 Rotational constants (GHZ):           4.3239724           1.1305110           0.9517384
 Leave Link  202 at Sat Jan  2 00:01:56 2021, MaxMem=  4294967296 cpu:               0.4 elap:               0.0
 (Enter /usr/public/gaussian//g16/l301.exe)
 Standard basis: 6-311G(d) (5D, 7F)
 Ernie: Thresh=  0.10000D-02 Tol=  0.10000D-05 Strict=F.
 There are   195 symmetry adapted cartesian basis functions of A   symmetry.
 There are   186 symmetry adapted basis functions of A   symmetry.
   186 basis functions,   328 primitive gaussians,   195 cartesian basis functions
    32 alpha electrons       32 beta electrons
       nuclear repulsion energy       406.1118278079 Hartrees.
 IExCor=  402 DFT=T Ex+Corr=B3LYP ExCW=0 ScaHFX=  0.200000
 ScaDFX=  0.800000  0.720000  1.000000  0.810000 ScalE2=  1.000000  1.000000
 IRadAn=      5 IRanWt=     -1 IRanGd=            0 ICorTp=0 IEmpDi=  4
 NAtoms=   17 NActive=   17 NUniq=   17 SFac= 1.00D+00 NAtFMM=   60 NAOKFM=F Big=F
 Integral buffers will be    131072 words long.
 Raffenetti 2 integral format.
 Two-electron integral symmetry is turned on.
 Leave Link  301 at Sat Jan  2 00:01:57 2021, MaxMem=  4294967296 cpu:               1.5 elap:               0.1
 (Enter /usr/public/gaussian//g16/l302.exe)
 NPDir=0 NMtPBC=     1 NCelOv=     1 NCel=       1 NClECP=     1 NCelD=      1
         NCelK=      1 NCelE2=     1 NClLst=     1 CellRange=     0.0.
 One-electron integrals computed using PRISM.
 One-electron integral symmetry used in STVInt
 NBasis=   186 RedAO= T EigKep=  1.89D-04  NBF=   186
 NBsUse=   186 1.00D-06 EigRej= -1.00D+00 NBFU=   186
 Precomputing XC quadrature grid using
 IXCGrd= 4 IRadAn=           5 IRanWt=          -1 IRanGd=           0 AccXCQ= 0.00D+00.
 Generated NRdTot=       0 NPtTot=           0 NUsed=           0 NTot=          32
 NSgBfM=   195   195   195   195   195 MxSgAt=    17 MxSgA2=    17.
 Leave Link  302 at Sat Jan  2 00:01:57 2021, MaxMem=  4294967296 cpu:               4.2 elap:               0.2
 (Enter /usr/public/gaussian//g16/l303.exe)
 DipDrv:  MaxL=1.
 Leave Link  303 at Sat Jan  2 00:01:57 2021, MaxMem=  4294967296 cpu:               0.7 elap:               0.0
 (Enter /usr/public/gaussian//g16/l401.exe)
 Initial guess from the checkpoint file:  "OCl.chk"
 B after Tr=    -0.000000   -0.000000   -0.000000
         Rot=    0.999854   -0.017021    0.000182    0.001271 Ang=  -1.96 deg.
 Guess basis will be translated and rotated to current coordinates.
 JPrj=2 DoOrth=T DoCkMO=T.
 Generating alternative initial guess.
 ExpMin= 1.03D-01 ExpMax= 8.59D+03 ExpMxC= 1.30D+03 IAcc=2 IRadAn=         4 AccDes= 0.00D+00
 Harris functional with IExCor=  402 and IRadAn=       4 diagonalized for initial guess.
 HarFok:  IExCor=  402 AccDes= 0.00D+00 IRadAn=         4 IDoV= 1 UseB2=F ITyADJ=14
 ICtDFT=  3500011 ScaDFX=  1.000000  1.000000  1.000000  1.000000
 FoFCou: FMM=F IPFlag=           0 FMFlag=      100000 FMFlg1=           0
         NFxFlg=           0 DoJE=T BraDBF=F KetDBF=T FulRan=T
         wScrn=  0.000000 ICntrl=       500 IOpCl=  0 I1Cent=   200000004 NGrid=           0
         NMat0=    1 NMatS0=      1 NMatT0=    0 NMatD0=    1 NMtDS0=    0 NMtDT0=    0
 Petite list used in FoFCou.
 Harris En= -384.950555523966    
 Leave Link  401 at Sat Jan  2 00:01:57 2021, MaxMem=  4294967296 cpu:               9.5 elap:               0.4
 (Enter /usr/public/gaussian//g16/l502.exe)
 Integral symmetry usage will be decided dynamically.
 Closed shell SCF:
 Using DIIS extrapolation, IDIIS=  1040.
 NGot=  4294967296 LenX=  4294883662 LenY=  4294845196
 Requested convergence on RMS density matrix=1.00D-08 within 128 cycles.
 Requested convergence on MAX density matrix=1.00D-06.
 Requested convergence on             energy=1.00D-06.
 No special actions if energy rises.
 Fock matrices will be formed incrementally for  20 cycles.
 Integral accuracy reduced to 1.0D-05 until final iterations.

 Cycle   1  Pass 0  IDiag  1:
 FoFJK:  IHMeth= 1 ICntrl=       0 DoSepK=F KAlg= 0 I1Cent=           0 FoldK=F
 IRaf= 950000000 NMat=       1 IRICut=       1 DoRegI=T DoRafI=F ISym2E= 0 IDoP0=0 IntGTp=1.
 FoFCou: FMM=F IPFlag=           0 FMFlag=      100000 FMFlg1=           0
         NFxFlg=           0 DoJE=F BraDBF=F KetDBF=F FulRan=T
         wScrn=  0.000000 ICntrl=         0 IOpCl=  0 I1Cent=           0 NGrid=           0
         NMat0=    1 NMatS0=      1 NMatT0=    0 NMatD0=    1 NMtDS0=    0 NMtDT0=    0
 Symmetry not used in FoFCou.
 E= -384.920967964363    
 DIIS: error= 4.70D-03 at cycle   1 NSaved=   1.
 NSaved= 1 IEnMin= 1 EnMin= -384.920967964363     IErMin= 1 ErrMin= 4.70D-03
 ErrMax= 4.70D-03  0.00D+00 EMaxC= 1.00D-01 BMatC= 5.25D-03 BMatP= 5.25D-03
 IDIUse=3 WtCom= 9.53D-01 WtEn= 4.70D-02
 Coeff-Com:  0.100D+01
 Coeff-En:   0.100D+01
 Coeff:      0.100D+01
 Gap=     0.793 Goal=   None    Shift=    0.000
 GapD=    0.793 DampG=2.000 DampE=1.000 DampFc=2.0000 IDamp=-1.
 RMSDP=6.00D-04 MaxDP=9.49D-03              OVMax= 2.38D-02

 Cycle   2  Pass 0  IDiag  1:
 RMSU=  5.99D-04    CP:  1.00D+00
 E= -384.928603874403     Delta-E=       -0.007635910040 Rises=F Damp=F
 DIIS: error= 1.48D-03 at cycle   2 NSaved=   2.
 NSaved= 2 IEnMin= 2 EnMin= -384.928603874403     IErMin= 2 ErrMin= 1.48D-03
 ErrMax= 1.48D-03  0.00D+00 EMaxC= 1.00D-01 BMatC= 3.39D-04 BMatP= 5.25D-03
 IDIUse=3 WtCom= 9.85D-01 WtEn= 1.48D-02
 Coeff-Com:  0.758D-01 0.924D+00
 Coeff-En:   0.000D+00 0.100D+01
 Coeff:      0.746D-01 0.925D+00
 Gap=     0.233 Goal=   None    Shift=    0.000
 RMSDP=2.41D-04 MaxDP=5.79D-03 DE=-7.64D-03 OVMax= 1.12D-02

 Cycle   3  Pass 0  IDiag  1:
 RMSU=  2.35D-04    CP:  9.98D-01  9.20D-01
 E= -384.928407190245     Delta-E=        0.000196684157 Rises=F Damp=F
 DIIS: error= 2.08D-03 at cycle   3 NSaved=   3.
 NSaved= 3 IEnMin= 2 EnMin= -384.928603874403     IErMin= 2 ErrMin= 1.48D-03
 ErrMax= 2.08D-03  0.00D+00 EMaxC= 1.00D-01 BMatC= 6.50D-04 BMatP= 3.39D-04
 IDIUse=3 WtCom= 1.80D-01 WtEn= 8.20D-01
 Coeff-Com: -0.369D-02 0.591D+00 0.413D+00
 Coeff-En:   0.000D+00 0.605D+00 0.395D+00
 Coeff:     -0.663D-03 0.602D+00 0.398D+00
 Gap=     0.233 Goal=   None    Shift=    0.000
 RMSDP=1.36D-04 MaxDP=3.92D-03 DE= 1.97D-04 OVMax= 6.81D-03

 Cycle   4  Pass 0  IDiag  1:
 RMSU=  6.08D-05    CP:  1.00D+00  9.89D-01  5.16D-01
 E= -384.928945397148     Delta-E=       -0.000538206902 Rises=F Damp=F
 DIIS: error= 3.12D-04 at cycle   4 NSaved=   4.
 NSaved= 4 IEnMin= 4 EnMin= -384.928945397148     IErMin= 4 ErrMin= 3.12D-04
 ErrMax= 3.12D-04  0.00D+00 EMaxC= 1.00D-01 BMatC= 2.23D-05 BMatP= 3.39D-04
 IDIUse=3 WtCom= 9.97D-01 WtEn= 3.12D-03
 Coeff-Com: -0.140D-01 0.176D+00 0.189D+00 0.649D+00
 Coeff-En:   0.000D+00 0.000D+00 0.000D+00 0.100D+01
 Coeff:     -0.140D-01 0.176D+00 0.188D+00 0.650D+00
 Gap=     0.233 Goal=   None    Shift=    0.000
 RMSDP=2.35D-05 MaxDP=5.94D-04 DE=-5.38D-04 OVMax= 1.15D-03

 Cycle   5  Pass 0  IDiag  1:
 RMSU=  1.34D-05    CP:  9.99D-01  9.98D-01  5.29D-01  7.00D-01
 E= -384.928961477258     Delta-E=       -0.000016080110 Rises=F Damp=F
 DIIS: error= 7.85D-05 at cycle   5 NSaved=   5.
 NSaved= 5 IEnMin= 5 EnMin= -384.928961477258     IErMin= 5 ErrMin= 7.85D-05
 ErrMax= 7.85D-05  0.00D+00 EMaxC= 1.00D-01 BMatC= 1.49D-06 BMatP= 2.23D-05
 IDIUse=1 WtCom= 1.00D+00 WtEn= 0.00D+00
 Coeff-Com: -0.693D-02 0.711D-01 0.846D-01 0.322D+00 0.530D+00
 Coeff:     -0.693D-02 0.711D-01 0.846D-01 0.322D+00 0.530D+00
 Gap=     0.233 Goal=   None    Shift=    0.000
 RMSDP=6.59D-06 MaxDP=1.76D-04 DE=-1.61D-05 OVMax= 4.53D-04

 Initial convergence to 1.0D-05 achieved.  Increase integral accuracy.
 Cycle   6  Pass 1  IDiag  1:
 E= -384.928948690022     Delta-E=        0.000012787236 Rises=F Damp=F
 DIIS: error= 3.66D-05 at cycle   1 NSaved=   1.
 NSaved= 1 IEnMin= 1 EnMin= -384.928948690022     IErMin= 1 ErrMin= 3.66D-05
 ErrMax= 3.66D-05  0.00D+00 EMaxC= 1.00D-01 BMatC= 1.98D-07 BMatP= 1.98D-07
 IDIUse=1 WtCom= 1.00D+00 WtEn= 0.00D+00
 Coeff-Com:  0.100D+01
 Coeff:      0.100D+01
 Gap=     0.233 Goal=   None    Shift=    0.000
 RMSDP=6.59D-06 MaxDP=1.76D-04 DE= 1.28D-05 OVMax= 4.97D-04

 Cycle   7  Pass 1  IDiag  1:
 RMSU=  9.73D-06    CP:  1.00D+00
 E= -384.928948195999     Delta-E=        0.000000494023 Rises=F Damp=F
 DIIS: error= 7.81D-05 at cycle   2 NSaved=   2.
 NSaved= 2 IEnMin= 1 EnMin= -384.928948690022     IErMin= 1 ErrMin= 3.66D-05
 ErrMax= 7.81D-05  0.00D+00 EMaxC= 1.00D-01 BMatC= 6.33D-07 BMatP= 1.98D-07
 IDIUse=1 WtCom= 1.00D+00 WtEn= 0.00D+00
 Coeff-Com:  0.647D+00 0.353D+00
 Coeff:      0.647D+00 0.353D+00
 Gap=     0.233 Goal=   None    Shift=    0.000
 RMSDP=3.98D-06 MaxDP=6.54D-05 DE= 4.94D-07 OVMax= 3.51D-04

 Cycle   8  Pass 1  IDiag  1:
 RMSU=  3.19D-06    CP:  1.00D+00  7.55D-01
 E= -384.928948897448     Delta-E=       -0.000000701450 Rises=F Damp=F
 DIIS: error= 6.46D-06 at cycle   3 NSaved=   3.
 NSaved= 3 IEnMin= 3 EnMin= -384.928948897448     IErMin= 3 ErrMin= 6.46D-06
 ErrMax= 6.46D-06  0.00D+00 EMaxC= 1.00D-01 BMatC= 5.89D-09 BMatP= 1.98D-07
 IDIUse=1 WtCom= 1.00D+00 WtEn= 0.00D+00
 Coeff-Com:  0.209D+00 0.141D+00 0.650D+00
 Coeff:      0.209D+00 0.141D+00 0.650D+00
 Gap=     0.233 Goal=   None    Shift=    0.000
 RMSDP=4.82D-07 MaxDP=1.30D-05 DE=-7.01D-07 OVMax= 3.68D-05

 Cycle   9  Pass 1  IDiag  1:
 RMSU=  4.34D-07    CP:  1.00D+00  7.68D-01  9.49D-01
 E= -384.928948901369     Delta-E=       -0.000000003921 Rises=F Damp=F
 DIIS: error= 3.13D-06 at cycle   4 NSaved=   4.
 NSaved= 4 IEnMin= 4 EnMin= -384.928948901369     IErMin= 4 ErrMin= 3.13D-06
 ErrMax= 3.13D-06  0.00D+00 EMaxC= 1.00D-01 BMatC= 2.16D-09 BMatP= 5.89D-09
 IDIUse=1 WtCom= 1.00D+00 WtEn= 0.00D+00
 Coeff-Com:  0.178D-01 0.266D-01 0.399D+00 0.557D+00
 Coeff:      0.178D-01 0.266D-01 0.399D+00 0.557D+00
 Gap=     0.233 Goal=   None    Shift=    0.000
 RMSDP=2.33D-07 MaxDP=6.63D-06 DE=-3.92D-09 OVMax= 1.08D-05

 Cycle  10  Pass 1  IDiag  1:
 RMSU=  1.55D-07    CP:  1.00D+00  7.67D-01  9.70D-01  6.39D-01
 E= -384.928948903094     Delta-E=       -0.000000001725 Rises=F Damp=F
 DIIS: error= 1.12D-06 at cycle   5 NSaved=   5.
 NSaved= 5 IEnMin= 5 EnMin= -384.928948903094     IErMin= 5 ErrMin= 1.12D-06
 ErrMax= 1.12D-06  0.00D+00 EMaxC= 1.00D-01 BMatC= 1.46D-10 BMatP= 2.16D-09
 IDIUse=1 WtCom= 1.00D+00 WtEn= 0.00D+00
 Coeff-Com: -0.117D-02 0.727D-02 0.182D+00 0.315D+00 0.497D+00
 Coeff:     -0.117D-02 0.727D-02 0.182D+00 0.315D+00 0.497D+00
 Gap=     0.233 Goal=   None    Shift=    0.000
 RMSDP=7.46D-08 MaxDP=2.01D-06 DE=-1.72D-09 OVMax= 3.01D-06

 Cycle  11  Pass 1  IDiag  1:
 RMSU=  3.95D-08    CP:  1.00D+00  7.68D-01  9.68D-01  6.55D-01  6.07D-01
 E= -384.928948903202     Delta-E=       -0.000000000108 Rises=F Damp=F
 DIIS: error= 2.62D-07 at cycle   6 NSaved=   6.
 NSaved= 6 IEnMin= 6 EnMin= -384.928948903202     IErMin= 6 ErrMin= 2.62D-07
 ErrMax= 2.62D-07  0.00D+00 EMaxC= 1.00D-01 BMatC= 1.27D-11 BMatP= 1.46D-10
 IDIUse=1 WtCom= 1.00D+00 WtEn= 0.00D+00
 Coeff-Com: -0.292D-02 0.117D-02 0.578D-01 0.118D+00 0.274D+00 0.552D+00
 Coeff:     -0.292D-02 0.117D-02 0.578D-01 0.118D+00 0.274D+00 0.552D+00
 Gap=     0.233 Goal=   None    Shift=    0.000
 RMSDP=1.66D-08 MaxDP=4.84D-07 DE=-1.08D-10 OVMax= 9.58D-07

 Cycle  12  Pass 1  IDiag  1:
 RMSU=  1.24D-08    CP:  1.00D+00  7.68D-01  9.67D-01  6.51D-01  6.24D-01
                    CP:  7.51D-01
 E= -384.928948903213     Delta-E=       -0.000000000011 Rises=F Damp=F
 DIIS: error= 2.88D-08 at cycle   7 NSaved=   7.
 NSaved= 7 IEnMin= 7 EnMin= -384.928948903213     IErMin= 7 ErrMin= 2.88D-08
 ErrMax= 2.88D-08  0.00D+00 EMaxC= 1.00D-01 BMatC= 1.44D-13 BMatP= 1.27D-11
 IDIUse=1 WtCom= 1.00D+00 WtEn= 0.00D+00
 Coeff-Com: -0.366D-03-0.288D-03-0.273D-02-0.214D-02 0.153D-01 0.984D-01
 Coeff-Com:  0.892D+00
 Coeff:     -0.366D-03-0.288D-03-0.273D-02-0.214D-02 0.153D-01 0.984D-01
 Coeff:      0.892D+00
 Gap=     0.233 Goal=   None    Shift=    0.000
 RMSDP=3.47D-09 MaxDP=5.11D-08 DE=-1.11D-11 OVMax= 2.24D-07

 SCF Done:  E(RB3LYP) =  -384.928948903     A.U. after   12 cycles
            NFock= 12  Conv=0.35D-08     -V/T= 2.0039
 KE= 3.834363908663D+02 PE=-1.708484472305D+03 EE= 5.340073047272D+02
 Leave Link  502 at Sat Jan  2 00:02:02 2021, MaxMem=  4294967296 cpu:             147.1 elap:               5.3
 (Enter /usr/public/gaussian//g16/l701.exe)
 ... and contract with generalized density number  0.
 Compute integral first derivatives.
 Leave Link  701 at Sat Jan  2 00:02:03 2021, MaxMem=  4294967296 cpu:               3.5 elap:               0.1
 (Enter /usr/public/gaussian//g16/l702.exe)
 L702 exits ... SP integral derivatives will be done elsewhere.
 Leave Link  702 at Sat Jan  2 00:02:03 2021, MaxMem=  4294967296 cpu:               0.5 elap:               0.0
 (Enter /usr/public/gaussian//g16/l703.exe)
 Integral derivatives from FoFJK, PRISM(SPDF).
 Compute integral first derivatives, UseDBF=F ICtDFT=           0.
 Calling FoFJK, ICntrl=      2127 FMM=F ISym2X=0 I1Cent= 0 IOpClX= 0 NMat=1 NMatS=1 NMatT=0.
 FoFJK:  IHMeth= 1 ICntrl=    2127 DoSepK=F KAlg= 0 I1Cent=           0 FoldK=F
 IRaf=         0 NMat=       1 IRICut=       1 DoRegI=T DoRafI=F ISym2E= 0 IDoP0=0 IntGTp=1.
 FoFCou: FMM=F IPFlag=           0 FMFlag=      100000 FMFlg1=         800
         NFxFlg=           0 DoJE=F BraDBF=F KetDBF=F FulRan=T
         wScrn=  0.000000 ICntrl=      2127 IOpCl=  0 I1Cent=           0 NGrid=           0
         NMat0=    1 NMatS0=      1 NMatT0=    0 NMatD0=    1 NMtDS0=    0 NMtDT0=    0
 Symmetry not used in FoFCou.
 Leave Link  703 at Sat Jan  2 00:02:04 2021, MaxMem=  4294967296 cpu:              35.4 elap:               1.3
 (Enter /usr/public/gaussian//g16/l716.exe)
 Dipole        =-2.12395813D-01-5.69295546D-01 3.52442430D-01
 ***** Axes restored to original set *****
 -------------------------------------------------------------------
 Center     Atomic                   Forces (Hartrees/Bohr)
 Number     Number              X              Y              Z
 -------------------------------------------------------------------
      1        8          -0.001299774   -0.001169253   -0.000569940
      2        6           0.003548173   -0.001826926    0.008005866
      3        1          -0.004244338   -0.002233803   -0.001437247
      4        1          -0.000553208    0.002051806   -0.004764556
      5        6           0.001813126    0.010482535   -0.004048177
      6        1           0.002494307   -0.002162638   -0.001519458
      7        6          -0.001248956   -0.006527082    0.004515175
      8        6           0.000899923   -0.000296736    0.000399146
      9        6           0.001170334    0.001902915   -0.001315961
     10        6          -0.001537327   -0.000594634    0.000186537
     11        1          -0.000285370   -0.000402671    0.000331617
     12        6           0.000724047   -0.000262604   -0.000146012
     13        1          -0.001014404   -0.000688566    0.000498031
     14        6          -0.000349537    0.001485123   -0.000203040
     15        1          -0.000172318   -0.000275952    0.000063516
     16        1           0.000125236    0.000392561    0.000018623
     17        1          -0.000069914    0.000125925   -0.000014120
 -------------------------------------------------------------------
 Cartesian Forces:  Max     0.010482535 RMS     0.002652877
 Leave Link  716 at Sat Jan  2 00:02:04 2021, MaxMem=  4294967296 cpu:               1.1 elap:               0.1
 (Enter /usr/public/gaussian//g16/l103.exe)

 GradGradGradGradGradGradGradGradGradGradGradGradGradGradGradGradGradGrad
 Berny optimization.
 Using GEDIIS/GDIIS optimizer.
 FormGI is forming the generalized inverse of G from B-inverse, IUseBI=4.
 Internal  Forces:  Max     0.006487972 RMS     0.001557219
 Search for a local minimum.
 Step number   2 out of a maximum of   90
 All quantities printed in internal units (Hartrees-Bohrs-Radians)
 RMS Force = .15572D-02 SwitMx=.10000D-02 MixMth= 1
 Mixed Optimization -- RFO/linear search
 Update second derivatives using D2CorX and points    1    2
 DE= -1.14D-02 DEPred=-1.32D-02 R= 8.69D-01
 TightC=F SS=  1.41D+00  RLast= 5.14D-01 DXNew= 5.0454D-01 1.5417D+00
 Trust test= 8.69D-01 RLast= 5.14D-01 DXMaxT set to 5.05D-01
 ITU=  1  0
 Use linear search instead of GDIIS.
     Eigenvalues ---    0.00639   0.01451   0.02003   0.02037   0.02072
     Eigenvalues ---    0.02095   0.02119   0.02121   0.02125   0.02131
     Eigenvalues ---    0.02743   0.03335   0.05711   0.13725   0.15304
     Eigenvalues ---    0.16000   0.16000   0.16000   0.16000   0.16000
     Eigenvalues ---    0.16085   0.16969   0.19220   0.21998   0.22064
     Eigenvalues ---    0.23489   0.24880   0.30953   0.31574   0.32466
     Eigenvalues ---    0.32579   0.32663   0.35594   0.35693   0.35707
     Eigenvalues ---    0.35716   0.35735   0.38227   0.41148   0.41461
     Eigenvalues ---    0.43616   0.44857   0.45554   0.45847   0.46188
 RFO step:  Lambda=-1.32171882D-03 EMin= 6.39072618D-03
 Quartic linear search produced a step of  0.10770.
 Iteration  1 RMS(Cart)=  0.03030126 RMS(Int)=  0.00090229
 Iteration  2 RMS(Cart)=  0.00084404 RMS(Int)=  0.00044809
 Iteration  3 RMS(Cart)=  0.00000077 RMS(Int)=  0.00044809
[...]
   yx        -0.183704D+02     -0.272221D+01     -0.302887D+01
   yy         0.805108D+02      0.119305D+02      0.132744D+02
   zx         0.194911D+02      0.288829D+01      0.321365D+01
   zy         0.132789D+02      0.196773D+01      0.218939D+01
   zz         0.697630D+02      0.103378D+02      0.115024D+02

 ----------------------------------------------------------------------
 1\1\GINC-COMPUTE010\Freq\RB3LYP\6-311G(d)\C8H8O1\XUHQ\02-Jan-2021\0\\#
 P Geom=AllCheck Guess=TCheck SCRF=Check GenChk RB3LYP/6-311G(d) Freq\\
 comment\\0,1\O,0.5630996727,0.151399516,-1.1933590905\C,0.495043023,-0
 .7004335365,-2.3378446238\H,0.701852476,-0.2159718461,-3.2894509704\H,
 -0.3257680383,-1.4148825031,-2.3365806967\C,1.5885781031,-0.8337615684
 ,-1.3562330388\H,1.5167789914,-1.6575319271,-0.646816662\C,2.972380237
 7,-0.3539190801,-1.6378703203\C,4.0437532799,-1.2509113133,-1.59160002
 96\C,3.2176722532,0.9848690408,-1.9553263152\C,5.3373893184,-0.8215320
 725,-1.8762081356\H,3.865509937,-2.2908885126,-1.3312911741\C,4.512010
 4137,1.4140267632,-2.2362733783\H,2.3887306219,1.6838700715,-1.9589866
 308\C,5.5748647762,0.5128029527,-2.2011791757\H,6.160958612,-1.5275471
 895,-1.8384110577\H,4.6923298503,2.4571992681,-2.4762264026\H,6.583446
 4716,0.849571937,-2.4184122977\\Version=ES64L-G16RevA.03\State=1-A\HF=
 -384.9300726\RMSD=3.387e-09\RMSF=2.647e-05\ZeroPoint=0.1383916\Thermal
 =0.1456205\Dipole=0.2766888,-0.512072,-0.4060714\DipoleDeriv=-0.584669
 8,0.0798065,0.123139,0.1766192,-0.5533884,-0.2059895,0.2241708,-0.1666
 101,-0.4779567,0.2264067,0.0941972,-0.0704295,0.0117451,0.2854175,0.09
 26489,0.0329249,0.0467941,0.3484643,0.0554825,-0.0561257,0.0376066,-0.
 037863,0.0165332,0.0770313,-0.0140955,0.0244239,-0.1017379,-0.1337367,
 -0.134579,-0.0314796,-0.1077829,-0.0125105,-0.0226679,-0.0195636,0.002
 5153,0.018146,0.4164542,-0.0126508,-0.0390632,-0.0244229,0.3501654,-0.
 0716168,-0.268243,-0.064887,0.2995066,-0.0488614,0.0044252,0.0026991,-
 0.0165663,-0.0579082,0.1065906,0.011483,0.119791,-0.0121762,0.2177997,
 0.0693063,-0.00132,0.0806491,-0.0696242,0.0318293,0.0269577,0.0357801,
 -0.0807662,-0.1586905,0.0118921,-0.0228438,0.0021056,0.1037873,-0.0691
 417,0.0045454,-0.0581229,-0.1165115,-0.0742331,-0.0914504,-0.0097741,-
 0.1100685,-0.036195,-0.0066598,-0.0225484,0.0047773,-0.1171731,0.07626
 54,-0.0963031,-0.0046715,-0.1171741,0.0274129,-0.0194987,-0.009587,-0.
 0246566,-0.1292429,0.0702734,-0.0485161,0.0248063,-0.0322213,-0.104804
 5,0.0584578,0.0175543,0.0624172,0.1105237,-0.0294867,0.0327445,-0.0231
 21,0.0428889,0.1569916,-0.0576918,-0.0184403,-0.0629263,-0.1159137,0.0
 21783,0.0872621,0.0010051,0.0779487,0.0359929,0.0156651,-0.0000752,0.0
 024959,0.1228785,0.0562918,0.0502032,-0.050697,0.0493174,-0.0709858,-0
 .0265349,-0.0413119,-0.023966,-0.1246692,-0.0579325,0.09803,0.0023202,
 0.1070174,-0.010921,0.0175303,0.0044816,0.0204986,0.1307503,0.0560826,
 -0.030002,0.0156702,-0.0431704,-0.114896,0.0543424,0.023059,0.0546134,
 0.12007,-0.1092284,-0.0582399,0.0461531,-0.0590221,0.054933,0.0257054,
 0.0486884,0.0270621,0.1258081\Polar=114.3348623,5.1129393,87.7887398,-
 2.6962448,-9.8198919,50.282989\Quadrupole=0.6156012,2.4097466,-3.02534
 78,2.6726245,1.9010929,-2.0331868\PG=C01 [X(C8H8O1)]\NImag=0\\0.184105
 14,-0.08490834,0.26969845,-0.02118277,0.11665394,0.22004221,-0.0319960
 6,-0.03222556,-0.00630226,0.48683645,-0.00489645,-0.11847173,-0.074890
 11,0.19253977,0.41340277,0.02553779,-0.10075820,-0.16455511,0.06398587
 ,-0.09071852,0.60829542,-0.00041102,-0.00153027,0.00580428,-0.06088504
 ,-0.03668686,0.04659912,0.05677014,0.00409688,0.01489987,-0.02870574,-
 0.03440069,-0.11372513,0.12065568,0.03524121,0.11102092,-0.00369151,0.
 00174156,-0.02539863,0.04707761,0.11450468,-0.24584886,-0.04615876,-0.
 11523230,0.27578527,0.01080468,0.00690445,-0.00740271,-0.20849320,-0.1
 4148793,0.00874330,-0.00153687,-0.00090887,-0.00122076,0.21264724,-0.0
 1821254,-0.01539020,-0.00967644,-0.13720009,-0.15826107,0.01588866,-0.
 00953797,-0.00508364,0.00034744,0.15189020,0.16919322,-0.02273315,-0.0
 1803951,-0.00526516,0.01438990,0.01490761,-0.05360722,0.01863823,0.015
 64866,0.00404617,-0.00303451,-0.00279588,0.05845364,-0.12323167,0.0959
 1229,0.04609588,-0.15950236,-0.02408600,-0.14018848,0.00525197,-0.0039
 4237,0.00376476,-0.01340032,0.01343664,-0.00688127,0.56390568,0.063835
 77,-0.14184412,-0.01540887,0.01383882,-0.02053983,0.06299069,0.0135034
 2,-0.00938482,-0.00101129,-0.01624546,0.00860176,-0.00980892,0.0041272
 4,0.46989626,0.01415208,0.01039529,-0.03757019,-0.10416949,0.02826718,
 -0.13653957,-0.02290734,0.00748766,-0.00957006,0.00506557,-0.00519685,
 -0.00436183,0.04726418,-0.20392045,0.42296273,-0.00501448,0.01821185,-
 0.01613026,-0.00219252,0.01445472,-0.00924474,-0.00127994,0.00075895,0
 .00027548,0.00086796,-0.00078566,-0.00055180,-0.05283526,-0.02309370,0
 .02239508,0.06547826,0.01057850,-0.02132493,0.01528093,0.00372147,0.00
 527351,-0.00955462,-0.00204511,0.00152332,-0.00047028,0.00069317,-0.00
 045478,0.00054914,-0.02424202,-0.18962350,0.13537965,0.01456336,0.2096
 1992,-0.00485211,-0.01298102,0.01324153,0.00404926,0.01914015,-0.01578
 561,-0.00272786,0.00147655,0.00030418,0.00035860,-0.00096906,0.0009026
 8,0.01982402,0.13954816,-0.16719819,-0.01484329,-0.14820571,0.16873444
 ,-0.02841663,0.00142602,-0.00353773,-0.02465941,0.00374346,0.00147749,
 0.00202235,-0.00117678,0.00076083,0.00019966,-0.00048566,0.00096692,-0
 .18498174,-0.04794043,0.03273676,-0.00113325,-0.00256068,-0.00307265,0
 .63823435,0.03109771,0.01057581,-0.00333966,-0.00682654,-0.00527918,0.
 00043731,0.00109527,0.00075543,0.00054304,-0.00033673,0.00084275,-0.00
 020617,-0.04914746,-0.11205763,0.02258563,-0.02261092,-0.00653309,0.00
 224785,-0.02419352,0.64952749,0.01216633,0.00239425,-0.00067708,-0.019
 07577,-0.01265556,0.00840220,0.00036889,-0.00081679,0.00043604,-0.0026
 3906,0.00275242,-0.00058118,0.02051321,0.02438191,-0.07672981,0.017638
 40,0.00727825,-0.00080295,-0.05612909,-0.10668083,0.19451472,-0.004868
 49,-0.00045334,0.00138964,0.00260767,0.00076324,0.00164827,-0.00068239
 ,0.00014709,-0.00055661,0.00020549,0.00015656,-0.00028800,-0.03151877,
 0.01743312,-0.00135936,0.00134370,0.00132549,-0.00041609,-0.23172335,0
 .06498786,0.01038856,0.65780547,-0.00542938,-0.00003180,0.00023764,-0.
 00193318,0.00068748,0.00025062,0.00023642,-0.00032701,-0.00006838,-0.0
 0049409,-0.00005251,0.00000364,-0.00088216,0.01208243,-0.00148275,-0.0
 0176899,0.00007563,0.00032627,0.12377750,-0.20479297,0.01429668,0.0041
 1887,0.69251121,0.00341844,-0.00070662,0.00065785,-0.00019892,-0.00024
 888,-0.00043241,0.00023618,-0.00026247,0.00026237,0.00001113,-0.000005
 68,0.00016044,0.00362096,-0.00395132,0.00336592,-0.00048858,-0.0007036
 4,0.00050745,-0.00282895,0.02472376,-0.06961111,-0.07718412,-0.1271813
 4,0.16905902,0.00224937,-0.00006553,0.00059655,-0.00029862,-0.00403494
 ,0.00132834,0.00057314,0.00001789,-0.00015913,-0.00085943,0.00056043,-
 0.00034246,-0.00804871,-0.03264559,0.00820472,-0.00480020,-0.00136028,
 0.00115721,-0.13111150,0.00344325,0.00729689,0.04826888,0.01459694,-0.
 00943192,0.70862583,0.00172161,-0.00422050,0.00016264,0.00218602,-0.00
 116253,0.00192760,0.00021637,0.00049120,0.00000599,-0.00011051,0.00009
 248,-0.00023081,-0.01634352,-0.00592784,0.00349577,0.00083681,0.000969
 33,0.00025336,-0.05332456,-0.29590271,0.05542037,0.05780173,-0.0429109
 8,0.00221606,-0.04896626,0.65901675,-0.00215455,0.00244542,0.00051872,
 -0.00055073,0.00103574,-0.00030189,0.00036025,-0.00022845,0.00025368,-
 0.00014508,-0.00005444,0.00042132,0.00713503,0.00512920,0.00051781,0.0
 0109046,0.00051298,0.00006405,0.01996562,0.04558263,-0.07765929,-0.019
 08789,0.00928061,0.01097575,-0.07701876,-0.09745579,0.16453111,-0.0007
 2537,-0.00131781,-0.00092230,-0.00142491,0.00008623,-0.00018411,0.0003
 5700,-0.00012445,0.00015574,-0.00018387,-0.00011243,0.00007486,0.00298
 594,0.00539963,0.00065554,-0.00005134,-0.00075766,0.00043331,-0.055199
 34,0.04532688,-0.00089054,-0.30576262,-0.08820821,0.05538359,-0.028331
 90,-0.03156655,0.01002189,0.69486554,0.00209008,0.00001302,-0.00024119
 ,-0.00069940,-0.00107028,-0.00057024,0.00034312,-0.00010031,0.00011444
 ,-0.00030140,0.00004257,0.00003028,0.00308899,-0.00176884,0.00169621,0
 .00015908,-0.00033633,-0.00002721,-0.00149980,0.05832723,-0.01056165,-
 0.02521220,-0.14528181,0.02250694,-0.03218322,-0.03741982,0.01143959,-
 0.05361620,0.66961098,-0.00144460,0.00035221,0.00073178,0.00186826,0.0
 0053850,-0.00002367,-0.00020027,0.00007609,-0.00011984,0.00023366,-0.0
 0017962,-0.00006400,0.00036487,0.00185410,0.00566014,-0.00004068,-0.00
 064045,-0.00005470,0.00844880,-0.01779578,0.00928165,0.04179477,0.0317
 3864,-0.07231157,0.01007141,0.01119977,-0.01190002,-0.07012103,-0.1108
 7400,0.16491136,0.00042446,-0.00076921,0.00012679,-0.00025679,0.000058
 73,-0.00017939,0.00004742,-0.00001086,0.00005990,-0.00004052,0.0000214
 1,0.00001766,0.00054377,0.00133953,-0.00124733,-0.00017579,-0.00021001
 ,0.00045821,0.00879321,0.02278388,-0.00592737,-0.06725289,-0.04011015,
 0.01392353,-0.00354290,0.00301163,0.00077953,0.00006047,-0.02993348,0.
 00686060,0.06654647,0.00023822,0.00036770,-0.00026453,0.00009596,0.000
 04324,-0.00013228,-0.00007395,0.00001175,-0.00004167,0.00009821,-0.000
 00209,-0.00000613,-0.00209142,-0.00029649,0.00003563,0.00092616,0.0006
 7150,-0.00049635,-0.00490560,-0.01632274,0.00504542,-0.04060196,-0.305
 39465,0.06718759,0.00415854,-0.00046451,0.00099633,0.00039799,-0.00592
 539,0.00161253,0.04410969,0.32553583,0.00017784,-0.00015421,-0.0002316
 4,-0.00072168,-0.00003824,-0.00006717,-0.00000910,0.00003554,0.0000043
 5,-0.00012679,0.00010624,0.00000427,-0.00043684,-0.00152054,-0.0026904
 6,-0.00004481,0.00059737,-0.00007922,0.00079424,0.00103900,0.00256543,
 0.01420450,0.06716357,-0.05172245,0.00029948,0.00070641,0.00588962,0.0
 0006974,0.00619555,0.00084084,-0.01603049,-0.07441248,0.04339929,-0.00
 101333,0.00002565,0.00061121,0.00018276,0.00146860,-0.00023988,-0.0005
 9429,0.00023189,-0.00022126,0.00039831,-0.00014222,-0.00009795,0.00304
 158,0.00037288,0.00098115,0.00011051,0.00016465,-0.00075189,0.01438501
 ,-0.08282674,0.01715017,-0.06592756,0.01220191,0.00654814,-0.30733683,
 -0.02576564,0.04129139,0.04998001,0.06170380,-0.01936928,-0.00109204,0
 .00041282,0.00013242,0.65352471,0.00066305,0.00198972,-0.00058993,0.00
 024543,-0.00008168,-0.00027986,-0.00009920,-0.00005100,-0.00003860,0.0
 0019043,0.00007311,0.00007339,0.00271485,-0.00587877,0.00313036,-0.001
 46378,-0.00040328,0.00022658,-0.03723393,-0.00423900,0.00686855,0.0134
 1098,-0.00393631,-0.00293765,-0.08837319,-0.14673513,0.03086795,0.0144
 2554,-0.04429965,0.00937982,0.00026949,0.00051355,-0.00027719,-0.00295
 572,0.70969718,-0.00079326,-0.00038291,0.00014136,0.00103733,0.0006845
 7,-0.00056868,0.00016126,0.00010268,0.00013587,0.00021696,-0.00022119,
 0.00029087,0.00065103,0.00173282,0.00630971,-0.00051797,-0.00015560,0.
 00020241,0.00636331,0.01458634,0.00248361,0.00546431,-0.00271510,-0.00
 817750,0.05455263,0.02166547,-0.07334654,-0.00885983,0.00255110,0.0093
 3508,0.00007914,-0.00027340,-0.00029642,-0.07600710,-0.11932052,0.1683
 0035,-0.00105817,-0.00113539,0.00048954,0.00004347,-0.00084059,-0.0000
 6779,0.00014378,0.00010028,-0.00000695,-0.00007299,0.00023551,-0.00001
 780,-0.00136480,-0.00034424,-0.00073374,0.00018182,0.00034266,0.000076
 20,0.00907393,-0.00172560,-0.00016779,0.00063665,-0.00145234,0.0011661
 1,-0.21949671,0.13785164,0.00160288,-0.00007047,-0.00082862,0.00012359
 ,0.00026288,-0.00047759,0.00016186,-0.01640124,0.01997821,-0.00103238,
 0.23167763,0.00009296,0.00269204,-0.00000723,-0.00020637,-0.00127254,-
 0.00049961,-0.00019032,-0.00019278,-0.00014173,-0.00008119,0.00035624,
 0.00002456,0.00209880,-0.00120974,-0.00136935,-0.00009676,0.00018761,-
 0.00001817,0.02443794,-0.01532464,0.00041383,-0.00244698,-0.00451621,0
 .00245149,0.13703205,-0.17615833,0.00500831,-0.00088043,-0.00040828,0.
 00009063,0.00126809,-0.00089385,0.00013665,-0.00924708,0.01090411,-0.0
 0022961,-0.14921362,0.18429805,0.00085665,-0.00059945,-0.00114315,-0.0
 0083850,-0.00045586,0.00104798,-0.00018740,-0.00020629,-0.00029981,-0.
 00005882,-0.00000794,-0.00036849,-0.00150133,-0.00004225,-0.00313425,0
 .00030457,0.00000017,-0.00003474,-0.00517492,0.00486145,0.00386546,0.0
 0126645,0.00265838,0.00512089,0.00284258,0.00372362,-0.03789439,0.0001
 8121,0.00010911,-0.00037051,-0.00029371,0.00032860,0.00038850,0.004301
 36,-0.00440602,0.00275120,-0.00297745,-0.00635634,0.02810433,0.0001327
 2,-0.00022483,0.00038713,0.00010422,-0.00111423,0.00043446,0.00020314,
 -0.00003735,-0.00002307,-0.00039975,0.00016699,-0.00008168,-0.00164929
 ,0.00056975,-0.00096881,0.00001608,0.00002660,0.00019897,-0.00685292,0
 .02259619,-0.00466198,0.01370949,-0.03550591,0.00678106,-0.05401636,-0
 .00140857,0.00989173,-0.13484749,-0.06253138,0.02401284,-0.00505644,-0
 .00174945,0.00220435,-0.24584603,0.13258855,-0.00095427,-0.00348034,-0
 .00240823,0.00194939,0.71775384,-0.00056533,0.00078082,0.00083777,0.00
 090211,0.00051194,0.00023560,-0.00046517,0.00017379,-0.00021224,0.0002
 3506,0.00001808,-0.00012032,-0.00088134,-0.00197712,-0.00047048,0.0000
 0960,0.00036118,-0.00046142,0.02326196,-0.06113183,0.00877967,-0.08313
 684,-0.00379100,0.01503892,0.04511117,0.05844055,-0.01771601,0.0007335
 3,-0.31188608,0.05470830,-0.00066079,0.00203442,0.00131965,0.06929511,
 -0.21189600,0.02100473,-0.00294246,0.00054921,0.00166233,0.00825398,0.
 64315219,0.00022761,-0.00011951,-0.00025827,-0.00037827,-0.00006700,-0
 .00009564,0.00002575,-0.00005819,0.00002787,0.00000035,-0.00001396,0.0
 0001088,0.00038186,0.00023762,-0.00076762,0.00012630,-0.00004477,0.000
 10806,-0.00533047,0.00811118,-0.00820131,0.01731739,0.00788586,0.00363
 238,-0.00041101,-0.01026076,0.01032667,0.01032585,0.06343290,-0.076384
 13,0.00188020,0.00145587,0.00652330,0.01197849,0.01242094,-0.06563998,
 0.00234621,0.00160027,0.00654633,-0.08747038,-0.11153113,0.16625355,-0
 .00076495,0.00001918,-0.00000934,-0.00006027,0.00005529,0.00017555,0.0
 0000460,-0.00000666,-0.00003374,-0.00006622,-0.00000029,-0.00002185,0.
 00014392,0.00124419,-0.00025752,-0.00005405,-0.00006862,0.00004004,-0.
 00389230,-0.00322537,0.00229372,-0.01759203,0.02111768,-0.00184322,-0.
 00006240,-0.00091886,0.00014553,-0.21722097,0.13580303,-0.00376212,0.0
 0083968,-0.00054951,-0.00055278,0.00129789,-0.00138853,0.00110377,-0.0
 0005181,0.00005978,-0.00017356,0.00796503,-0.00505314,0.00032950,0.228
 59542,-0.00019149,-0.00000208,-0.00006673,-0.00003036,0.00004205,0.000
 01899,-0.00000148,-0.00000509,-0.00001049,0.00001899,-0.00000151,0.000
 00190,-0.00019987,0.00035383,0.00009411,0.00002970,0.00000402,0.000005
 02,-0.00233799,0.00074966,0.00175301,-0.00891788,0.01004907,-0.0004777
 2,-0.00090572,-0.00037168,0.00013417,0.13592633,-0.17496658,0.01148684
 ,0.00034126,0.00066710,-0.00106536,-0.00236973,-0.00447268,0.00282556,
 0.00003683,-0.00000650,-0.00026578,0.02513572,-0.01441076,0.00014127,-
 0.14714717,0.18251893,0.00002970,0.00002019,-0.00013679,0.00004332,0.0
 0000928,0.00005876,0.00000481,0.00003465,-0.00001476,0.00002482,-0.000
 01334,-0.00000693,0.00000011,-0.00028371,0.00035363,0.00001743,0.00002
 909,-0.00000975,0.00238079,0.00171797,0.00662358,0.00458521,-0.0048582
 5,0.00251549,0.00022035,0.00019286,-0.00057189,-0.00378903,0.01174853,
 -0.03702564,-0.00074047,-0.00095844,-0.00352648,0.00129106,0.00271338,
 0.00612654,-0.00019404,-0.00022185,-0.00111694,-0.00631136,0.00431600,
 0.00245613,0.00321604,-0.01372362,0.02749826,-0.00007847,0.00028404,-0
 .00000323,0.00002017,-0.00007476,0.00009235,-0.00000473,0.00000326,-0.
 00002522,-0.00003335,0.00002797,-0.00002214,0.00060254,-0.00140067,0.0
 0032166,-0.00042929,-0.00015647,0.00005855,-0.00515671,-0.00103195,0.0
 0195287,-0.00115262,0.00035398,0.00002406,-0.00029328,-0.02961978,0.00
 633280,-0.00332588,0.00317607,0.00079682,0.00008741,-0.00008876,-0.000
 16932,-0.06709849,-0.04273544,0.01353975,0.00083620,0.00032331,-0.0007
 4948,0.00875072,0.02419136,-0.00585524,0.00020758,0.00122552,-0.000274
 95,0.06629414,-0.00014513,0.00009614,0.00002923,0.00000658,-0.00007817
 ,0.00011363,0.00001333,0.00000206,-0.00001729,-0.00005754,0.00001399,-
 0.00002314,0.00044671,-0.00036958,0.00005965,-0.00018533,-0.00007218,-
 0.00001222,-0.00159825,0.00193480,0.00132455,0.00034123,0.00062202,-0.
 00027436,0.00018932,-0.00567750,0.00161699,0.00412334,-0.00030799,0.00
 086843,-0.00008281,-0.00014058,-0.00021354,-0.04261453,-0.31204317,0.0
 6286148,-0.00053299,0.00064501,-0.00086859,-0.00609337,-0.01525601,0.0
 0455235,-0.00031640,-0.00086833,0.00031064,0.04620639,0.33082394,0.000
 10111,-0.00015149,0.00000046,-0.00000299,0.00001279,0.00000785,-0.0000
 0496,0.00000614,-0.00000482,0.00001000,0.00001168,-0.00000314,-0.00030
 572,0.00037546,0.00022034,0.00000766,0.00001413,-0.00008281,0.00229475
 ,0.00159890,0.00669893,0.00021921,-0.00026817,-0.00038132,0.00029851,0
 .00570395,0.00141985,0.00054988,0.00096796,0.00663136,-0.00017741,-0.0
 0024974,-0.00119047,0.01370881,0.06263551,-0.05054413,-0.00073303,-0.0
 0093374,-0.00372562,0.00019036,0.00044400,0.00253670,0.00006611,0.0000
 4488,0.00026479,-0.01549568,-0.06937744,0.04165594,-0.00013775,-0.0001
 5322,-0.00001043,-0.00002558,0.00005173,0.00008183,0.00002075,0.000010
 56,0.00000268,-0.00003682,-0.00001884,-0.00001497,0.00005751,0.0000057
 4,-0.00013315,-0.00003223,-0.00001507,0.00000951,0.00041864,0.00059377
 ,-0.00027742,0.00190338,-0.00061891,0.00086252,-0.00151838,0.00439843,
 0.00033993,-0.00110483,0.00044152,0.00036237,-0.00018840,0.00010064,0.
 00004739,-0.01761096,-0.01023674,0.00499533,-0.00085984,-0.00054194,0.
 00025296,-0.29648660,-0.07828881,0.05450587,0.00071089,-0.00061265,-0.
 00050379,0.00077407,0.00029946,-0.00072661,0.31411614,-0.00006612,0.00
 017180,-0.00001170,-0.00001397,-0.00001886,-0.00000544,-0.00001881,-0.
 00000855,-0.00001288,-0.00000679,0.00001161,-0.00000829,-0.00000936,-0
 .00005598,-0.00018727,0.00005490,0.00006207,-0.00005278,0.00061032,-0.
 00112937,0.00000592,0.00028302,-0.00499258,0.00262492,0.00342513,-0.00
 205876,0.00140476,-0.02983574,-0.00422243,0.00558397,-0.00142640,-0.00
 040481,0.00038158,0.02004434,0.01085901,-0.00471642,0.00094831,0.00035
 059,-0.00013513,-0.07826445,-0.08567337,0.02225705,0.00037540,0.000720
 56,-0.00103339,-0.00068409,0.00067556,-0.00083483,0.08458432,0.0857135
 0,0.00018441,-0.00010994,-0.00009789,-0.00021292,-0.00002632,0.0000136
 1,-0.00000309,-0.00001340,0.00000097,-0.00003665,0.00002796,-0.0000323
 2,-0.00030227,-0.00030259,-0.00082830,0.00000676,0.00013336,-0.0000168
 3,-0.00011569,-0.00001264,-0.00060889,0.00061376,0.00273206,0.00637880
 ,0.00049462,0.00127350,0.00675545,0.00691522,0.00148169,0.00086188,0.0
 0041061,0.00017304,0.00018872,-0.00130684,-0.00046671,0.00249627,-0.00
 003543,0.00005188,0.00026321,0.05442127,0.02216461,-0.04707493,-0.0007
 1611,-0.00089605,-0.00348800,-0.00052359,-0.00095038,-0.00350393,-0.05
 979404,-0.02526008,0.03869219\\0.00007064,-0.00009593,-0.00004638,-0.0
 0001333,0.00002962,-0.00000355,0.00001157,0.00000392,0.00001343,0.0000
 0372,-0.00000261,0.00002138,-0.00010145,0.00005876,0.00002025,0.000006
 46,-0.00000227,0.00000057,0.00003171,0.00002228,-0.00000868,-0.0000008
 7,0.00000464,0.00000152,-0.00001859,-0.00003230,0.00000885,0.00000180,
 -0.00000196,-0.00000015,-0.00000102,0.00000204,-0.00000228,0.00000067,
 0.00000608,-0.00000036,0.00000629,0.00000962,-0.00000274,-0.00000230,-
 0.00000291,-0.00000007,0.00000327,0.00000351,-0.00000152,-0.00000035,-
 0.00000143,-0.00000049,0.00000179,-0.00000105,0.00000022\\\@


 HIGGLEDY-PIGGLEDY
 NIC'LAUS COPERNICUS
 LOOKED AT THE UNIVERSE,
 SPOKE TO THE THRONG;
 GIVE UP YOUR PTOLOMY,
 RISE UP AND FOLLOW ME,
 HELIOCENTRICALLY
 PTOLEMY'S WRONG.
   -- NANCY L. STARK
 Job cpu time:       0 days  0 hours 21 minutes 55.7 seconds.
 Elapsed time:       0 days  0 hours  0 minutes 49.7 seconds.
 File lengths (MBytes):  RWF=    118 Int=      0 D2E=      0 Chk=      4 Scr=      2
 Normal termination of Gaussian 16 at Sat Jan  2 00:03:39 2021.
