 Entering Gaussian System, Link 0=g16
 Input=3_alkyl_intermediate_opt_scan002_freq_TS_freq.com
 Output=3_alkyl_intermediate_opt_scan002_freq_TS_freq.log
 Initial command:
 /usr/public/gaussian//g16/l1.exe "/gsfs0/data/xuhq/Gau-169288.inp" -scrdir="/gsfs0/data/xuhq/"
 Entering Link 1 = /usr/public/gaussian//g16/l1.exe PID=    169290.
  
 Copyright (c) 1988,1990,1992,1993,1995,1998,2003,2009,2016,
            Gaussian, Inc.  All Rights Reserved.
  
 This is part of the Gaussian(R) 16 program.  It is based on
 the Gaussian(R) 09 system (copyright 2009, Gaussian, Inc.),
 the Gaussian(R) 03 system (copyright 2003, Gaussian, Inc.),
 the Gaussian(R) 98 system (copyright 1998, Gaussian, Inc.),
 the Gaussian(R) 94 system (copyright 1995, Gaussian, Inc.),
 the Gaussian 92(TM) system (copyright 1992, Gaussian, Inc.),
 the Gaussian 90(TM) system (copyright 1990, Gaussian, Inc.),
 the Gaussian 88(TM) system (copyright 1988, Gaussian, Inc.),
 the Gaussian 86(TM) system (copyright 1986, Carnegie Mellon
 University), and the Gaussian 82(TM) system (copyright 1983,
 Carnegie Mellon University). Gaussian is a federally registered
 trademark of Gaussian, Inc.
  
 This software contains proprietary and confidential information,
 including trade secrets, belonging to Gaussian, Inc.
  
 This software is provided under written license and may be
 used, copied, transmitted, or stored only in accord with that
 written license.
  
 The following legend is applicable only to US Government
 contracts under FAR:
  
                    RESTRICTED RIGHTS LEGEND
  
 Use, reproduction and disclosure by the US Government is
 subject to restrictions as set forth in subparagraphs (a)
 and (c) of the Commercial Computer Software - Restricted
 Rights clause in FAR 52.227-19.
  
 Gaussian, Inc.
 340 Quinnipiac St., Bldg. 40, Wallingford CT 06492
  
  
 ---------------------------------------------------------------
 Warning -- This program may not be used in any manner that
 competes with the business of Gaussian, Inc. or will provide
 assistance to any competitor of Gaussian, Inc.  The licensee
 of this program is prohibited from giving any competitor of
 Gaussian, Inc. access to this program.  By using this program,
 the user acknowledges that Gaussian, Inc. is engaged in the
 business of creating and licensing software in the field of
 computational chemistry and represents and warrants to the
 licensee that it is not a competitor of Gaussian, Inc. and that
 it will not use this program in any manner prohibited above.
 ---------------------------------------------------------------
  

 Cite this work as:
 Gaussian 16, Revision A.03,
 M. J. Frisch, G. W. Trucks, H. B. Schlegel, G. E. Scuseria, 
 M. A. Robb, J. R. Cheeseman, G. Scalmani, V. Barone, 
 G. A. Petersson, H. Nakatsuji, X. Li, M. Caricato, A. V. Marenich, 
 J. Bloino, B. G. Janesko, R. Gomperts, B. Mennucci, H. P. Hratchian, 
 J. V. Ortiz, A. F. Izmaylov, J. L. Sonnenberg, D. Williams-Young, 
 F. Ding, F. Lipparini, F. Egidi, J. Goings, B. Peng, A. Petrone, 
 T. Henderson, D. Ranasinghe, V. G. Zakrzewski, J. Gao, N. Rega, 
 G. Zheng, W. Liang, M. Hada, M. Ehara, K. Toyota, R. Fukuda, 
 J. Hasegawa, M. Ishida, T. Nakajima, Y. Honda, O. Kitao, H. Nakai, 
 T. Vreven, K. Throssell, J. A. Montgomery, Jr., J. E. Peralta, 
 F. Ogliaro, M. J. Bearpark, J. J. Heyd, E. N. Brothers, K. N. Kudin, 
 V. N. Staroverov, T. A. Keith, R. Kobayashi, J. Normand, 
 K. Raghavachari, A. P. Rendell, J. C. Burant, S. S. Iyengar, 
 J. Tomasi, M. Cossi, J. M. Millam, M. Klene, C. Adamo, R. Cammi, 
 J. W. Ochterski, R. L. Martin, K. Morokuma, O. Farkas, 
 J. B. Foresman, and D. J. Fox, Gaussian, Inc., Wallingford CT, 2016.
 
 ******************************************
 Gaussian 16:  ES64L-G16RevA.03 25-Dec-2016
                 6-Mar-2021 
 ******************************************
 %mem=25gb
 %nprocshared=38
 Will use up to   38 processors via shared memory.
 %chk=3_alkyl_intermediate_opt_scan002_freq_TS_freq.chk
 -----------------
 #p b3lyp/gen freq
 -----------------
 1/10=4,30=1,38=1/1,3;
 2/12=2,17=6,18=5,40=1/2;
 3/5=7,11=2,25=1,30=1,71=2,74=-5,140=1/1,2,3;
 4//1;
 5/5=2,38=5,98=1/2;
 8/6=4,10=90,11=11/1;
 11/6=1,8=1,9=11,15=111,16=1/1,2,10;
 10/6=1/2;
 6/7=2,8=2,9=2,10=2,28=1/1;
 7/8=1,10=1,25=1/1,2,3,16;
 1/10=4,30=1/3;
 99//99;
 Leave Link    1 at Sat Mar  6 19:33:06 2021, MaxMem=  3355443200 cpu:              29.0 elap:               0.8
 (Enter /usr/public/gaussian//g16/l101.exe)
 -------
 comment
 -------
 Symbolic Z-matrix:
 Charge =  0 Multiplicity = 2
 C                     0.33002   2.24613   2.07228 
 N                     0.16114   0.90134   1.85689 
 H                     1.67238   3.45088   3.40124 
 C                     1.0852    0.28336   2.66186 
 C                     1.83218   1.25762   3.4157 
 H                     2.61151   1.02084   4.12669 
 C                     1.36092   2.47613   3.05219 
 C                     1.2689   -1.08217   2.76722 
 N                    -0.46657  -1.75744   1.17282 
 C                    -0.93586  -2.98553   0.76701 
 C                    -0.22549  -4.04248   1.4364 
 H                    -0.41619  -5.09753   1.29633 
 C                     0.68772  -3.44843   2.24703 
 H                     1.4014   -3.91486   2.91201 
 C                     0.53298  -2.02809   2.07842 
 C                    -0.37352   3.25401   1.44015 
 H                    -3.58721   3.98944  -1.76173 
 C                    -2.89405   3.52142  -1.07647 
 C                    -2.70857   2.09943  -0.94025 
 H                    -1.9052    5.16496   0.00001 
 N                    -1.77075   1.82624   0.0242 
 C                    -1.34647   3.04923   0.47971 
 C                    -2.05105   4.11099  -0.19221 
 C                    -1.94185  -3.19121  -0.15979 
 H                    -4.81187  -0.94674  -2.96333 
 C                    -4.05295  -1.18526  -2.23107 
 C                    -3.65518  -2.40733  -1.79392 
 H                    -4.0174   -3.3808   -2.0943 
 C                    -2.62252  -2.18253  -0.81744 
 N                    -2.40232  -0.83529  -0.65056 
 C                    -3.26927  -0.21223  -1.51718 
 C                    -3.40801   1.15497  -1.66779 
 Co                   -0.98757   0.03399   0.46265 
 H                    -0.13559   4.2778    1.70606 
 H                    -4.12898   1.51084  -2.39514 
 H                    -2.21443  -4.21536  -0.38861 
 H                     2.03303  -1.43736   3.44934 
 O                     0.30615   0.21351  -0.84654 
 C                     0.68398  -0.8475   -1.70252 
 H                     0.62695  -0.47615  -2.73845 
 H                    -0.00494  -1.69531  -1.6422 
 C                     2.07344  -1.30218  -1.38197 
 H                     2.19444  -2.25361  -0.87033 
 C                     3.24181  -0.53978  -1.62655 
 C                     4.5264   -1.08979  -1.36231 
 C                     3.19599   0.77991  -2.15707 
 C                     5.68417  -0.38211  -1.63691 
 H                     4.58994  -2.09159  -0.94672 
 C                     4.36042   1.47901  -2.42561 
 H                     2.23253   1.25134  -2.30975 
 C                     5.61278   0.90688  -2.17535 
 H                     6.65181  -0.83042  -1.43181 
 H                     4.2991    2.48685  -2.82545 
 H                     6.52065   1.46206  -2.38807 
 
 ITRead=  0  0  0  0  0  0  0  0  0  0  0  0  0  0  0  0  0  0  0  0
 ITRead=  0  0  0  0  0  0  0  0  0  0  0  0  0  0  0  0  0  0  0  0
 ITRead=  0  0  0  0  0  0  0  0  0  0  0  0  0  0
 MicOpt= -1 -1 -1 -1 -1 -1 -1 -1 -1 -1 -1 -1 -1 -1 -1 -1 -1 -1 -1 -1
 MicOpt= -1 -1 -1 -1 -1 -1 -1 -1 -1 -1 -1 -1 -1 -1 -1 -1 -1 -1 -1 -1
 MicOpt= -1 -1 -1 -1 -1 -1 -1 -1 -1 -1 -1 -1 -1 -1
 NAtoms=     54 NQM=       54 NQMF=       0 NMMI=      0 NMMIF=      0
                NMic=       0 NMicF=      0.
                    Isotopes and Nuclear Properties:
 (Nuclear quadrupole moments (NQMom) in fm**2, nuclear magnetic moments (NMagM)
  in nuclear magnetons)

  Atom         1           2           3           4           5           6           7           8           9          10
 IAtWgt=          12          14           1          12          12           1          12          12          14          12
 AtmWgt=  12.0000000  14.0030740   1.0078250  12.0000000  12.0000000   1.0078250  12.0000000  12.0000000  14.0030740  12.0000000
 NucSpn=           0           2           1           0           0           1           0           0           2           0
 AtZEff=  -0.0000000  -0.0000000  -0.0000000  -0.0000000  -0.0000000  -0.0000000  -0.0000000  -0.0000000  -0.0000000  -0.0000000
 NQMom=    0.0000000   2.0440000   0.0000000   0.0000000   0.0000000   0.0000000   0.0000000   0.0000000   2.0440000   0.0000000
 NMagM=    0.0000000   0.4037610   2.7928460   0.0000000   0.0000000   2.7928460   0.0000000   0.0000000   0.4037610   0.0000000
 AtZNuc=   6.0000000   7.0000000   1.0000000   6.0000000   6.0000000   1.0000000   6.0000000   6.0000000   7.0000000   6.0000000

  Atom        11          12          13          14          15          16          17          18          19          20
 IAtWgt=          12           1          12           1          12          12           1          12          12           1
 AtmWgt=  12.0000000   1.0078250  12.0000000   1.0078250  12.0000000  12.0000000   1.0078250  12.0000000  12.0000000   1.0078250
 NucSpn=           0           1           0           1           0           0           1           0           0           1
 AtZEff=  -0.0000000  -0.0000000  -0.0000000  -0.0000000  -0.0000000  -0.0000000  -0.0000000  -0.0000000  -0.0000000  -0.0000000
 NQMom=    0.0000000   0.0000000   0.0000000   0.0000000   0.0000000   0.0000000   0.0000000   0.0000000   0.0000000   0.0000000
 NMagM=    0.0000000   2.7928460   0.0000000   2.7928460   0.0000000   0.0000000   2.7928460   0.0000000   0.0000000   2.7928460
 AtZNuc=   6.0000000   1.0000000   6.0000000   1.0000000   6.0000000   6.0000000   1.0000000   6.0000000   6.0000000   1.0000000

  Atom        21          22          23          24          25          26          27          28          29          30
 IAtWgt=          14          12          12          12           1          12          12           1          12          14
 AtmWgt=  14.0030740  12.0000000  12.0000000  12.0000000   1.0078250  12.0000000  12.0000000   1.0078250  12.0000000  14.0030740
 NucSpn=           2           0           0           0           1           0           0           1           0           2
 AtZEff=  -0.0000000  -0.0000000  -0.0000000  -0.0000000  -0.0000000  -0.0000000  -0.0000000  -0.0000000  -0.0000000  -0.0000000
 NQMom=    2.0440000   0.0000000   0.0000000   0.0000000   0.0000000   0.0000000   0.0000000   0.0000000   0.0000000   2.0440000
 NMagM=    0.4037610   0.0000000   0.0000000   0.0000000   2.7928460   0.0000000   0.0000000   2.7928460   0.0000000   0.4037610
 AtZNuc=   7.0000000   6.0000000   6.0000000   6.0000000   1.0000000   6.0000000   6.0000000   1.0000000   6.0000000   7.0000000

  Atom        31          32          33          34          35          36          37          38          39          40
 IAtWgt=          12          12          59           1           1           1           1          16          12           1
 AtmWgt=  12.0000000  12.0000000  58.9331978   1.0078250   1.0078250   1.0078250   1.0078250  15.9949146  12.0000000   1.0078250
 NucSpn=           0           0           7           1           1           1           1           0           0           1
 AtZEff=  -0.0000000  -0.0000000  -0.0000000  -0.0000000  -0.0000000  -0.0000000  -0.0000000  -0.0000000  -0.0000000  -0.0000000
 NQMom=    0.0000000   0.0000000  42.0000000   0.0000000   0.0000000   0.0000000   0.0000000   0.0000000   0.0000000   0.0000000
 NMagM=    0.0000000   0.0000000   4.6270000   2.7928460   2.7928460   2.7928460   2.7928460   0.0000000   0.0000000   2.7928460
 AtZNuc=   6.0000000   6.0000000  27.0000000   1.0000000   1.0000000   1.0000000   1.0000000   8.0000000   6.0000000   1.0000000

  Atom        41          42          43          44          45          46          47          48          49          50
 IAtWgt=           1          12           1          12          12          12          12           1          12           1
 AtmWgt=   1.0078250  12.0000000   1.0078250  12.0000000  12.0000000  12.0000000  12.0000000   1.0078250  12.0000000   1.0078250
 NucSpn=           1           0           1           0           0           0           0           1           0           1
 AtZEff=  -0.0000000  -0.0000000  -0.0000000  -0.0000000  -0.0000000  -0.0000000  -0.0000000  -0.0000000  -0.0000000  -0.0000000
 NQMom=    0.0000000   0.0000000   0.0000000   0.0000000   0.0000000   0.0000000   0.0000000   0.0000000   0.0000000   0.0000000
 NMagM=    2.7928460   0.0000000   2.7928460   0.0000000   0.0000000   0.0000000   0.0000000   2.7928460   0.0000000   2.7928460
 AtZNuc=   1.0000000   6.0000000   1.0000000   6.0000000   6.0000000   6.0000000   6.0000000   1.0000000   6.0000000   1.0000000

  Atom        51          52          53          54
 IAtWgt=          12           1           1           1
 AtmWgt=  12.0000000   1.0078250   1.0078250   1.0078250
 NucSpn=           0           1           1           1
 AtZEff=  -0.0000000  -0.0000000  -0.0000000  -0.0000000
 NQMom=    0.0000000   0.0000000   0.0000000   0.0000000
 NMagM=    0.0000000   2.7928460   2.7928460   2.7928460
 AtZNuc=   6.0000000   1.0000000   1.0000000   1.0000000
 Leave Link  101 at Sat Mar  6 19:33:10 2021, MaxMem=  3355443200 cpu:              36.5 elap:               2.5
 (Enter /usr/public/gaussian//g16/l103.exe)

 GradGradGradGradGradGradGradGradGradGradGradGradGradGradGradGradGradGrad
 Berny optimization.
 Initialization pass.
 Trust Radius=3.00D-01 FncErr=1.00D-07 GrdErr=1.00D-07 EigMax=2.50D+02 EigMin=1.00D-04
 Number of steps in this run=      2 maximum allowed number of steps=      2.
 GradGradGradGradGradGradGradGradGradGradGradGradGradGradGradGradGradGrad

 Leave Link  103 at Sat Mar  6 19:33:12 2021, MaxMem=  3355443200 cpu:               1.8 elap:               0.8
 (Enter /usr/public/gaussian//g16/l202.exe)
 Stoichiometry    C28H20CoN4O(2)
 Framework group  C1[X(C28H20CoN4O)]
 Deg. of freedom   156
 Full point group                 C1      NOp   1
 Largest Abelian subgroup         C1      NOp   1
 Largest concise Abelian subgroup C1      NOp   1
                         Standard orientation:                         
 ---------------------------------------------------------------------
 Center     Atomic      Atomic             Coordinates (Angstroms)
 Number     Number       Type             X           Y           Z
 ---------------------------------------------------------------------
      1          6           0        0.330019    2.246130    2.072283
      2          7           0        0.161140    0.901344    1.856892
      3          1           0        1.672376    3.450879    3.401241
      4          6           0        1.085205    0.283364    2.661860
      5          6           0        1.832179    1.257621    3.415698
      6          1           0        2.611513    1.020843    4.126687
      7          6           0        1.360924    2.476127    3.052188
      8          6           0        1.268900   -1.082170    2.767221
      9          7           0       -0.466573   -1.757444    1.172817
     10          6           0       -0.935864   -2.985534    0.767014
     11          6           0       -0.225488   -4.042476    1.436399
     12          1           0       -0.416192   -5.097525    1.296333
     13          6           0        0.687717   -3.448428    2.247028
     14          1           0        1.401395   -3.914857    2.912011
     15          6           0        0.532983   -2.028095    2.078415
     16          6           0       -0.373516    3.254012    1.440153
     17          1           0       -3.587209    3.989443   -1.761733
     18          6           0       -2.894052    3.521421   -1.076469
     19          6           0       -2.708569    2.099427   -0.940247
     20          1           0       -1.905198    5.164960    0.000009
     21          7           0       -1.770746    1.826235    0.024197
     22          6           0       -1.346472    3.049233    0.479714
     23          6           0       -2.051053    4.110995   -0.192214
     24          6           0       -1.941853   -3.191214   -0.159785
     25          1           0       -4.811869   -0.946737   -2.963334
     26          6           0       -4.052952   -1.185263   -2.231073
     27          6           0       -3.655182   -2.407332   -1.793921
     28          1           0       -4.017401   -3.380797   -2.094305
     29          6           0       -2.622518   -2.182534   -0.817439
     30          7           0       -2.402317   -0.835286   -0.650563
     31          6           0       -3.269274   -0.212225   -1.517184
     32          6           0       -3.408012    1.154971   -1.667787
     33         27           0       -0.987565    0.033992    0.462654
     34          1           0       -0.135587    4.277804    1.706059
     35          1           0       -4.128981    1.510838   -2.395142
     36          1           0       -2.214431   -4.215362   -0.388605
     37          1           0        2.033026   -1.437364    3.449340
     38          8           0        0.306151    0.213514   -0.846538
     39          6           0        0.683976   -0.847501   -1.702516
     40          1           0        0.626945   -0.476147   -2.738449
     41          1           0       -0.004942   -1.695307   -1.642203
     42          6           0        2.073440   -1.302175   -1.381965
     43          1           0        2.194444   -2.253608   -0.870334
     44          6           0        3.241812   -0.539780   -1.626553
     45          6           0        4.526404   -1.089791   -1.362310
     46          6           0        3.195986    0.779908   -2.157073
     47          6           0        5.684169   -0.382113   -1.636906
     48          1           0        4.589937   -2.091587   -0.946717
     49          6           0        4.360415    1.479013   -2.425607
     50          1           0        2.232530    1.251341   -2.309751
     51          6           0        5.612781    0.906883   -2.175351
     52          1           0        6.651807   -0.830420   -1.431811
     53          1           0        4.299099    2.486850   -2.825447
     54          1           0        6.520645    1.462059   -2.388068
 ---------------------------------------------------------------------
 Rotational constants (GHZ):           0.1510821           0.1129209           0.0998071
 Leave Link  202 at Sat Mar  6 19:33:13 2021, MaxMem=  3355443200 cpu:              17.2 elap:               0.7
 (Enter /usr/public/gaussian//g16/l301.exe)
 General basis read from cards:  (5D, 7F)
 Centers:       1      4      5      7      8     10     11     13     15     16
 Centers:      18     19     22     23     24     26     27     29     31     32
 Centers:      39     42     44     45     46     47     49     51      2      9
 Centers:      21     30     38      3      6     12     14     17     20     25
 Centers:      28     34     35     36     37     40     41     43     48     50
 Centers:      52     53     54
 6-311G*
 ****
 Centers:      33
 def2svp
 ****
 Ernie: Thresh=  0.10000D-02 Tol=  0.10000D-05 Strict=F.
 There are   723 symmetry adapted cartesian basis functions of A   symmetry.
 There are   685 symmetry adapted basis functions of A   symmetry.
   685 basis functions,  1237 primitive gaussians,   723 cartesian basis functions
   126 alpha electrons      125 beta electrons
       nuclear repulsion energy      4104.1735817184 Hartrees.
 IExCor=  402 DFT=T Ex+Corr=B3LYP ExCW=0 ScaHFX=  0.200000
 ScaDFX=  0.800000  0.720000  1.000000  0.810000 ScalE2=  1.000000  1.000000
 IRadAn=      5 IRanWt=     -1 IRanGd=            0 ICorTp=0 IEmpDi=  4
 NAtoms=   54 NActive=   54 NUniq=   54 SFac= 1.00D+00 NAtFMM=   60 NAOKFM=F Big=F
 Integral buffers will be    131072 words long.
 Raffenetti 2 integral format.
 Two-electron integral symmetry is turned on.
 Leave Link  301 at Sat Mar  6 19:33:16 2021, MaxMem=  3355443200 cpu:              38.5 elap:               1.7
 (Enter /usr/public/gaussian//g16/l302.exe)
 NPDir=0 NMtPBC=     1 NCelOv=     1 NCel=       1 NClECP=     1 NCelD=      1
         NCelK=      1 NCelE2=     1 NClLst=     1 CellRange=     0.0.
 One-electron integrals computed using PRISM.
 One-electron integral symmetry used in STVInt
 NBasis=   685 RedAO= T EigKep=  1.42D-04  NBF=   685
 NBsUse=   685 1.00D-06 EigRej= -1.00D+00 NBFU=   685
 Precomputing XC quadrature grid using
 IXCGrd= 4 IRadAn=           5 IRanWt=          -1 IRanGd=           0 AccXCQ= 0.00D+00.
 Generated NRdTot=       0 NPtTot=           0 NUsed=           0 NTot=          32
 NSgBfM=   715   714   715   715   715 MxSgAt=    54 MxSgA2=    54.
 Leave Link  302 at Sat Mar  6 19:33:22 2021, MaxMem=  3355443200 cpu:             155.4 elap:               5.5
 (Enter /usr/public/gaussian//g16/l303.exe)
 DipDrv:  MaxL=1.
 Leave Link  303 at Sat Mar  6 19:33:25 2021, MaxMem=  3355443200 cpu:              23.8 elap:               1.9
 (Enter /usr/public/gaussian//g16/l401.exe)
 ExpMin= 3.59D-02 ExpMax= 6.59D+04 ExpMxC= 9.90D+03 IAcc=3 IRadAn=         5 AccDes= 0.00D+00
 Harris functional with IExCor=  402 and IRadAn=       5 diagonalized for initial guess.
 HarFok:  IExCor=  402 AccDes= 0.00D+00 IRadAn=         5 IDoV= 1 UseB2=F ITyADJ=14
 ICtDFT=  3500011 ScaDFX=  1.000000  1.000000  1.000000  1.000000
 FoFCou: FMM=F IPFlag=           0 FMFlag=      100000 FMFlg1=           0
         NFxFlg=           0 DoJE=T BraDBF=F KetDBF=T FulRan=T
         wScrn=  0.000000 ICntrl=       500 IOpCl=  0 I1Cent=   200000004 NGrid=           0
         NMat0=    1 NMatS0=      1 NMatT0=    0 NMatD0=    1 NMtDS0=    0 NMtDT0=    0
 Petite list used in FoFCou.
 Harris En= -2756.19872294109    
 JPrj=0 DoOrth=F DoCkMO=F.
 Initial guess <Sx>= 0.0000 <Sy>= 0.0000 <Sz>= 0.5000 <S**2>= 0.7500 S= 0.5000
 Leave Link  401 at Sat Mar  6 19:33:30 2021, MaxMem=  3355443200 cpu:             162.7 elap:               4.8
 (Enter /usr/public/gaussian//g16/l502.exe)
 Integral symmetry usage will be decided dynamically.
 UHF open shell SCF:
 Using DIIS extrapolation, IDIIS=  1040.
 NGot=  3355443200 LenX=  3354363055 LenY=  3353839603
 Requested convergence on RMS density matrix=1.00D-08 within 128 cycles.
 Requested convergence on MAX density matrix=1.00D-06.
 Requested convergence on             energy=1.00D-06.
 No special actions if energy rises.
 Fock matrices will be formed incrementally for  20 cycles.

 Cycle   1  Pass 1  IDiag  1:
 FoFJK:  IHMeth= 1 ICntrl=       0 DoSepK=F KAlg= 0 I1Cent=           0 FoldK=F
 IRaf= 720000000 NMat=       1 IRICut=       1 DoRegI=T DoRafI=F ISym2E= 0 IDoP0=0 IntGTp=1.
 FoFCou: FMM=F IPFlag=           0 FMFlag=      100000 FMFlg1=           0
         NFxFlg=           0 DoJE=F BraDBF=F KetDBF=F FulRan=T
         wScrn=  0.000000 ICntrl=         0 IOpCl=  1 I1Cent=           0 NGrid=           0
         NMat0=    1 NMatS0=      1 NMatT0=    0 NMatD0=    1 NMtDS0=    0 NMtDT0=    0
 Symmetry not used in FoFCou.
 E= -2754.39019149488    
 DIIS: error= 8.50D-02 at cycle   1 NSaved=   1.
 NSaved= 1 IEnMin= 1 EnMin= -2754.39019149488     IErMin= 1 ErrMin= 8.50D-02
 ErrMax= 8.50D-02  0.00D+00 EMaxC= 1.00D-01 BMatC= 9.50D+00 BMatP= 9.50D+00
 IDIUse=3 WtCom= 1.50D-01 WtEn= 8.50D-01
 Coeff-Com:  0.100D+01
 Coeff-En:   0.100D+01
 Coeff:      0.100D+01
 Gap=     0.675 Goal=   None    Shift=    0.000
 Gap=     0.040 Goal=   None    Shift=    0.000
 GapD=    0.040 DampG=0.250 DampE=0.250 DampFc=0.1250 IDamp=-1.
 Damping current iteration by 1.25D-01
 RMSDP=1.02D-02 MaxDP=3.50D+00              OVMax= 8.56D-01

 Cycle   2  Pass 1  IDiag  1:
 RMSU=  1.28D-03    CP:  9.98D-01
 E= -2755.00616775167     Delta-E=       -0.615976256783 Rises=F Damp=T
 DIIS: error= 3.70D-02 at cycle   2 NSaved=   2.
 NSaved= 2 IEnMin= 2 EnMin= -2755.00616775167     IErMin= 2 ErrMin= 3.70D-02
 ErrMax= 3.70D-02  0.00D+00 EMaxC= 1.00D-01 BMatC= 2.89D+00 BMatP= 9.50D+00
 IDIUse=3 WtCom= 6.30D-01 WtEn= 3.70D-01
 Coeff-Com: -0.778D+00 0.178D+01
 Coeff-En:   0.000D+00 0.100D+01
 Coeff:     -0.490D+00 0.149D+01
 Gap=     0.020 Goal=   None    Shift=    0.000
 Gap=     0.384 Goal=   None    Shift=    0.000
 RMSDP=2.75D-03 MaxDP=3.43D-01 DE=-6.16D-01 OVMax= 8.39D-01

 Cycle   3  Pass 1  IDiag  1:
 RMSU=  2.71D-03    CP:  9.64D-01  7.13D-01
 E= -2753.68886478595     Delta-E=        1.317302965716 Rises=F Damp=F
 DIIS: error= 1.51D-01 at cycle   3 NSaved=   3.
 NSaved= 3 IEnMin= 2 EnMin= -2755.00616775167     IErMin= 2 ErrMin= 3.70D-02
 ErrMax= 1.51D-01  0.00D+00 EMaxC= 1.00D-01 BMatC= 1.35D+01 BMatP= 2.89D+00
 IDIUse=2 WtCom= 0.00D+00 WtEn= 1.00D+00
 EnCoef did    12 forward-backward iterations
 Coeff-En:   0.409D+00 0.195D+00 0.396D+00
 Coeff:      0.409D+00 0.195D+00 0.396D+00
 Gap=     0.093 Goal=   None    Shift=    0.000
 Gap=     0.012 Goal=   None    Shift=    0.000
 RMSDP=3.38D-03 MaxDP=1.38D-01 DE= 1.32D+00 OVMax= 9.69D-01

 Cycle   4  Pass 1  IDiag  1:
 RMSU=  2.78D-03    CP:  9.66D-01  8.93D-01  2.98D-01
 E= -2747.82713866733     Delta-E=        5.861726118615 Rises=F Damp=F
 DIIS: error= 1.13D-01 at cycle   4 NSaved=   4.
 NSaved= 4 IEnMin= 2 EnMin= -2755.00616775167     IErMin= 2 ErrMin= 3.70D-02
 ErrMax= 1.13D-01  0.00D+00 EMaxC= 1.00D-01 BMatC= 2.19D+01 BMatP= 2.89D+00
 IDIUse=2 WtCom= 0.00D+00 WtEn= 1.00D+00
 EnCoef did   100 forward-backward iterations
 Coeff-En:   0.540D+00 0.243D-01 0.310D+00 0.126D+00
 Coeff:      0.540D+00 0.243D-01 0.310D+00 0.126D+00
 Gap=     0.005 Goal=   None    Shift=    0.000
 Gap=     0.192 Goal=   None    Shift=    0.000
 RMSDP=2.47D-03 MaxDP=3.97D-01 DE= 5.86D+00 OVMax= 9.93D-01

 Cycle   5  Pass 1  IDiag  1:
 RMSU=  1.47D-03    CP:  9.79D-01  2.78D-01  3.27D-01  3.46D-01
 E= -2755.91659266342     Delta-E=       -8.089453996090 Rises=F Damp=F
 DIIS: error= 1.84D-02 at cycle   5 NSaved=   5.
 NSaved= 5 IEnMin= 5 EnMin= -2755.91659266342     IErMin= 5 ErrMin= 1.84D-02
 ErrMax= 1.84D-02  0.00D+00 EMaxC= 1.00D-01 BMatC= 9.75D-01 BMatP= 2.89D+00
 IDIUse=3 WtCom= 8.16D-01 WtEn= 1.84D-01
 EnCoef did     3 forward-backward iterations
 Coeff-Com: -0.429D-01 0.373D+00 0.168D+00-0.527D-01 0.555D+00
 Coeff-En:   0.113D+00 0.000D+00 0.947D-01 0.000D+00 0.792D+00
 Coeff:     -0.143D-01 0.304D+00 0.155D+00-0.430D-01 0.598D+00
 Gap=     0.081 Goal=   None    Shift=    0.000
 Gap=     0.098 Goal=   None    Shift=    0.000
 RMSDP=1.33D-03 MaxDP=1.35D-01 DE=-8.09D+00 OVMax= 5.74D-01

 Cycle   6  Pass 1  IDiag  1:
 RMSU=  7.85D-04    CP:  9.78D-01  2.58D-01  4.48D-01  1.03D-01  4.77D-01
 E= -2756.07855159342     Delta-E=       -0.161958930000 Rises=F Damp=F
 DIIS: error= 1.44D-02 at cycle   6 NSaved=   6.
 NSaved= 6 IEnMin= 6 EnMin= -2756.07855159342     IErMin= 6 ErrMin= 1.44D-02
 ErrMax= 1.44D-02  0.00D+00 EMaxC= 1.00D-01 BMatC= 4.10D-01 BMatP= 9.75D-01
 IDIUse=3 WtCom= 8.56D-01 WtEn= 1.44D-01
 Coeff-Com: -0.232D-01 0.149D+00 0.374D-01-0.209D-01 0.388D+00 0.470D+00
 Coeff-En:   0.000D+00 0.000D+00 0.000D+00 0.000D+00 0.318D+00 0.682D+00
 Coeff:     -0.199D-01 0.127D+00 0.320D-01-0.178D-01 0.378D+00 0.501D+00
 Gap=     0.035 Goal=   None    Shift=    0.000
 Gap=     0.063 Goal=   None    Shift=    0.000
 RMSDP=6.31D-04 MaxDP=5.27D-02 DE=-1.62D-01 OVMax= 3.05D-01

 Cycle   7  Pass 1  IDiag  1:
 RMSU=  4.14D-04    CP:  9.78D-01  2.93D-01  4.11D-01  1.86D-01  6.55D-01
                    CP:  6.12D-01
 E= -2756.15065979731     Delta-E=       -0.072108203882 Rises=F Damp=F
 DIIS: error= 8.79D-03 at cycle   7 NSaved=   7.
 NSaved= 7 IEnMin= 7 EnMin= -2756.15065979731     IErMin= 7 ErrMin= 8.79D-03
 ErrMax= 8.79D-03  0.00D+00 EMaxC= 1.00D-01 BMatC= 1.49D-01 BMatP= 4.10D-01
 IDIUse=3 WtCom= 9.12D-01 WtEn= 8.79D-02
 Coeff-Com:  0.418D-01-0.262D-01-0.129D-01-0.798D-02 0.204D+00 0.389D+00
 Coeff-Com:  0.412D+00
 Coeff-En:   0.000D+00 0.000D+00 0.000D+00 0.000D+00 0.000D+00 0.261D+00
 Coeff-En:   0.739D+00
 Coeff:      0.381D-01-0.239D-01-0.118D-01-0.728D-02 0.186D+00 0.378D+00
 Coeff:      0.441D+00
 Gap=     0.041 Goal=   None    Shift=    0.000
 Gap=     0.068 Goal=   None    Shift=    0.000
 RMSDP=3.65D-04 MaxDP=7.35D-02 DE=-7.21D-02 OVMax= 2.29D-01

 Cycle   8  Pass 1  IDiag  1:
 RMSU=  2.68D-04    CP:  9.79D-01  2.39D-01  3.92D-01  1.62D-01  6.25D-01
                    CP:  7.67D-01  5.63D-01
 E= -2756.18237568783     Delta-E=       -0.031715890525 Rises=F Damp=F
 DIIS: error= 6.78D-03 at cycle   8 NSaved=   8.
 NSaved= 8 IEnMin= 8 EnMin= -2756.18237568783     IErMin= 8 ErrMin= 6.78D-03
 ErrMax= 6.78D-03  0.00D+00 EMaxC= 1.00D-01 BMatC= 3.91D-02 BMatP= 1.49D-01
 IDIUse=3 WtCom= 9.32D-01 WtEn= 6.78D-02
 Coeff-Com:  0.465D-02-0.338D-02-0.789D-02 0.115D-02 0.653D-01 0.184D+00
 Coeff-Com:  0.305D+00 0.451D+00
 Coeff-En:   0.000D+00 0.000D+00 0.000D+00 0.000D+00 0.000D+00 0.000D+00
 Coeff-En:   0.194D+00 0.806D+00
 Coeff:      0.433D-02-0.315D-02-0.735D-02 0.108D-02 0.609D-01 0.171D+00
 Coeff:      0.298D+00 0.475D+00
 Gap=     0.048 Goal=   None    Shift=    0.000
 Gap=     0.083 Goal=   None    Shift=    0.000
 RMSDP=1.85D-04 MaxDP=2.07D-02 DE=-3.17D-02 OVMax= 1.03D-01

 Cycle   9  Pass 1  IDiag  1:
 RMSU=  1.61D-04    CP:  9.78D-01  2.60D-01  3.99D-01  1.65D-01  5.93D-01
                    CP:  7.83D-01  7.22D-01  9.19D-01
 E= -2756.19098532528     Delta-E=       -0.008609637452 Rises=F Damp=F
 DIIS: error= 1.84D-03 at cycle   9 NSaved=   9.
 NSaved= 9 IEnMin= 9 EnMin= -2756.19098532528     IErMin= 9 ErrMin= 1.84D-03
 ErrMax= 1.84D-03  0.00D+00 EMaxC= 1.00D-01 BMatC= 8.19D-03 BMatP= 3.91D-02
 IDIUse=3 WtCom= 9.82D-01 WtEn= 1.84D-02
 Coeff-Com: -0.203D-01 0.268D-01-0.613D-03 0.958D-03 0.134D-01 0.566D-01
 Coeff-Com:  0.151D+00 0.353D+00 0.419D+00
 Coeff-En:   0.000D+00 0.000D+00 0.000D+00 0.000D+00 0.000D+00 0.000D+00
 Coeff-En:   0.000D+00 0.000D+00 0.100D+01
 Coeff:     -0.200D-01 0.263D-01-0.601D-03 0.940D-03 0.132D-01 0.555D-01
 Coeff:      0.148D+00 0.347D+00 0.430D+00
 Gap=     0.053 Goal=   None    Shift=    0.000
 Gap=     0.091 Goal=   None    Shift=    0.000
 RMSDP=1.24D-04 MaxDP=1.84D-02 DE=-8.61D-03 OVMax= 8.22D-02

 Cycle  10  Pass 1  IDiag  1:
 RMSU=  7.89D-05    CP:  9.78D-01  2.65D-01  3.99D-01  1.59D-01  5.73D-01
                    CP:  7.86D-01  7.36D-01  1.25D+00  1.06D+00
 E= -2756.19376260732     Delta-E=       -0.002777282032 Rises=F Damp=F
 DIIS: error= 2.09D-03 at cycle  10 NSaved=  10.
 NSaved=10 IEnMin=10 EnMin= -2756.19376260732     IErMin= 9 ErrMin= 1.84D-03
 ErrMax= 2.09D-03  0.00D+00 EMaxC= 1.00D-01 BMatC= 6.00D-03 BMatP= 8.19D-03
 IDIUse=3 WtCom= 9.82D-01 WtEn= 1.84D-02
 Coeff-Com: -0.208D-01 0.314D-01 0.927D-03 0.128D-02 0.256D-01 0.387D-01
 Coeff-Com:  0.788D-01-0.496D-02 0.102D+00 0.747D+00
 Coeff-En:   0.000D+00 0.000D+00 0.000D+00 0.000D+00 0.000D+00 0.000D+00
 Coeff-En:   0.000D+00 0.000D+00 0.000D+00 0.100D+01
 Coeff:     -0.205D-01 0.308D-01 0.910D-03 0.126D-02 0.251D-01 0.380D-01
 Coeff:      0.774D-01-0.486D-02 0.101D+00 0.751D+00
 Gap=     0.057 Goal=   None    Shift=    0.000
 Gap=     0.102 Goal=   None    Shift=    0.000
 RMSDP=1.03D-04 MaxDP=1.16D-02 DE=-2.78D-03 OVMax= 6.04D-02

 Cycle  11  Pass 1  IDiag  1:
 RMSU=  3.44D-05    CP:  9.78D-01  2.77D-01  3.98D-01  1.58D-01  5.48D-01
                    CP:  7.81D-01  7.58D-01  1.39D+00  1.45D+00  1.63D+00
 E= -2756.19600577026     Delta-E=       -0.002243162948 Rises=F Damp=F
 DIIS: error= 1.55D-03 at cycle  11 NSaved=  11.
 NSaved=11 IEnMin=11 EnMin= -2756.19600577026     IErMin=11 ErrMin= 1.55D-03
 ErrMax= 1.55D-03  0.00D+00 EMaxC= 1.00D-01 BMatC= 3.80D-03 BMatP= 6.00D-03
 IDIUse=3 WtCom= 9.85D-01 WtEn= 1.55D-02
 Coeff-Com: -0.141D-01 0.242D-01 0.463D-03 0.126D-02 0.352D-01 0.331D-01
 Coeff-Com:  0.396D-01-0.227D+00-0.164D+00 0.585D+00 0.687D+00
 Coeff-En:   0.000D+00 0.000D+00 0.000D+00 0.000D+00 0.000D+00 0.000D+00
 Coeff-En:   0.000D+00 0.000D+00 0.000D+00 0.000D+00 0.100D+01
 Coeff:     -0.139D-01 0.238D-01 0.455D-03 0.124D-02 0.346D-01 0.326D-01
 Coeff:      0.390D-01-0.224D+00-0.162D+00 0.576D+00 0.691D+00
 Gap=     0.061 Goal=   None    Shift=    0.000
 Gap=     0.116 Goal=   None    Shift=    0.000
 RMSDP=1.03D-04 MaxDP=1.17D-02 DE=-2.24D-03 OVMax= 5.75D-02

 Cycle  12  Pass 1  IDiag  1:
 RMSU=  3.30D-05    CP:  9.77D-01  2.89D-01  3.97D-01  1.58D-01  5.25D-01
                    CP:  7.66D-01  7.67D-01  1.51D+00  1.77D+00  2.45D+00
                    CP:  1.21D+00
 E= -2756.19774032704     Delta-E=       -0.001734556779 Rises=F Damp=F
 DIIS: error= 1.03D-03 at cycle  12 NSaved=  12.
 NSaved=12 IEnMin=12 EnMin= -2756.19774032704     IErMin=12 ErrMin= 1.03D-03
 ErrMax= 1.03D-03  0.00D+00 EMaxC= 1.00D-01 BMatC= 1.89D-03 BMatP= 3.80D-03
 IDIUse=3 WtCom= 9.90D-01 WtEn= 1.03D-02
 Coeff-Com: -0.207D-02 0.487D-02-0.140D-02 0.624D-03 0.212D-01 0.244D-01
 Coeff-Com:  0.409D-01-0.759D-01-0.577D-01-0.479D+00 0.478D+00 0.105D+01
 Coeff-En:   0.000D+00 0.000D+00 0.000D+00 0.000D+00 0.000D+00 0.000D+00
 Coeff-En:   0.000D+00 0.000D+00 0.000D+00 0.000D+00 0.000D+00 0.100D+01
 Coeff:     -0.205D-02 0.482D-02-0.138D-02 0.617D-03 0.210D-01 0.241D-01
 Coeff:      0.404D-01-0.752D-01-0.571D-01-0.474D+00 0.473D+00 0.105D+01
 Gap=     0.064 Goal=   None    Shift=    0.000
 Gap=     0.120 Goal=   None    Shift=    0.000
 RMSDP=9.61D-05 MaxDP=1.24D-02 DE=-1.73D-03 OVMax= 4.63D-02

 Cycle  13  Pass 1  IDiag  1:
 RMSU=  2.93D-05    CP:  9.77D-01  3.01D-01  3.95D-01  1.60D-01  5.04D-01
                    CP:  7.46D-01  7.76D-01  1.57D+00  2.07D+00  3.00D+00
                    CP:  2.34D+00  1.46D+00
 E= -2756.19879114865     Delta-E=       -0.001050821613 Rises=F Damp=F
 DIIS: error= 6.95D-04 at cycle  13 NSaved=  13.
 NSaved=13 IEnMin=13 EnMin= -2756.19879114865     IErMin=13 ErrMin= 6.95D-04
 ErrMax= 6.95D-04  0.00D+00 EMaxC= 1.00D-01 BMatC= 5.63D-04 BMatP= 1.89D-03
 IDIUse=3 WtCom= 9.93D-01 WtEn= 6.95D-03
 Coeff-Com:  0.178D-02-0.269D-02-0.715D-03 0.410D-03 0.256D-02 0.821D-02
 Coeff-Com:  0.292D-01 0.105D+00 0.125D+00-0.680D+00-0.972D-01 0.875D+00
 Coeff-Com:  0.634D+00
 Coeff-En:   0.000D+00 0.000D+00 0.000D+00 0.000D+00 0.000D+00 0.000D+00
 Coeff-En:   0.000D+00 0.000D+00 0.000D+00 0.000D+00 0.000D+00 0.000D+00
 Coeff-En:   0.100D+01
 Coeff:      0.177D-02-0.268D-02-0.710D-03 0.407D-03 0.254D-02 0.815D-02
 Coeff:      0.290D-01 0.104D+00 0.124D+00-0.675D+00-0.965D-01 0.869D+00
 Coeff:      0.637D+00
 Gap=     0.066 Goal=   None    Shift=    0.000
 Gap=     0.113 Goal=   None    Shift=    0.000
 RMSDP=4.24D-05 MaxDP=7.32D-03 DE=-1.05D-03 OVMax= 1.49D-02

 Cycle  14  Pass 1  IDiag  1:
 RMSU=  2.71D-05    CP:  9.77D-01  3.04D-01  3.93D-01  1.61D-01  4.97D-01
                    CP:  7.40D-01  7.69D-01  1.58D+00  2.16D+00  3.00D+00
                    CP:  2.58D+00  2.14D+00  1.20D+00
 E= -2756.19910722663     Delta-E=       -0.000316077974 Rises=F Damp=F
 DIIS: error= 3.53D-04 at cycle  14 NSaved=  14.
 NSaved=14 IEnMin=14 EnMin= -2756.19910722663     IErMin=14 ErrMin= 3.53D-04
 ErrMax= 3.53D-04  0.00D+00 EMaxC= 1.00D-01 BMatC= 1.66D-04 BMatP= 5.63D-04
 IDIUse=3 WtCom= 9.96D-01 WtEn= 3.53D-03
 Coeff-Com:  0.765D-03-0.183D-02 0.214D-03 0.755D-04-0.237D-02 0.419D-02
 Coeff-Com:  0.168D-01 0.955D-01 0.996D-01-0.345D+00-0.189D+00 0.308D+00
 Coeff-Com:  0.403D+00 0.610D+00
 Coeff-En:   0.000D+00 0.000D+00 0.000D+00 0.000D+00 0.000D+00 0.000D+00
 Coeff-En:   0.000D+00 0.000D+00 0.000D+00 0.000D+00 0.000D+00 0.000D+00
 Coeff-En:   0.000D+00 0.100D+01
 Coeff:      0.763D-03-0.182D-02 0.214D-03 0.752D-04-0.236D-02 0.418D-02
 Coeff:      0.167D-01 0.952D-01 0.992D-01-0.344D+00-0.188D+00 0.307D+00
 Coeff:      0.402D+00 0.611D+00
 Gap=     0.066 Goal=   None    Shift=    0.000
 Gap=     0.113 Goal=   None    Shift=    0.000
 RMSDP=2.29D-05 MaxDP=4.64D-03 DE=-3.16D-04 OVMax= 7.80D-03

 Cycle  15  Pass 1  IDiag  1:
 RMSU=  1.10D-05    CP:  9.77D-01  3.06D-01  3.93D-01  1.61D-01  4.94D-01
                    CP:  7.37D-01  7.69D-01  1.58D+00  2.19D+00  3.00D+00
                    CP:  2.79D+00  2.36D+00  1.67D+00  1.30D+00
 E= -2756.19922845087     Delta-E=       -0.000121224243 Rises=F Damp=F
 DIIS: error= 2.54D-04 at cycle  15 NSaved=  15.
 NSaved=15 IEnMin=15 EnMin= -2756.19922845087     IErMin=15 ErrMin= 2.54D-04
 ErrMax= 2.54D-04  0.00D+00 EMaxC= 1.00D-01 BMatC= 9.76D-05 BMatP= 1.66D-04
 IDIUse=3 WtCom= 9.97D-01 WtEn= 2.54D-03
 Coeff-Com:  0.630D-04-0.793D-03 0.344D-03 0.939D-05-0.221D-02 0.474D-02
 Coeff-Com:  0.115D-01 0.568D-01 0.439D-01-0.137D+00-0.124D+00 0.404D-01
 Coeff-Com:  0.161D+00 0.438D+00 0.507D+00
 Coeff-En:   0.000D+00 0.000D+00 0.000D+00 0.000D+00 0.000D+00 0.000D+00
 Coeff-En:   0.000D+00 0.000D+00 0.000D+00 0.000D+00 0.000D+00 0.000D+00
 Coeff-En:   0.000D+00 0.000D+00 0.100D+01
 Coeff:      0.628D-04-0.791D-03 0.343D-03 0.937D-05-0.220D-02 0.472D-02
 Coeff:      0.114D-01 0.567D-01 0.438D-01-0.137D+00-0.123D+00 0.403D-01
 Coeff:      0.161D+00 0.437D+00 0.509D+00
 Gap=     0.067 Goal=   None    Shift=    0.000
 Gap=     0.113 Goal=   None    Shift=    0.000
 RMSDP=1.81D-05 MaxDP=3.66D-03 DE=-1.21D-04 OVMax= 6.79D-03

 Cycle  16  Pass 1  IDiag  1:
 RMSU=  7.75D-06    CP:  9.77D-01  3.07D-01  3.93D-01  1.61D-01  4.92D-01
                    CP:  7.34D-01  7.69D-01  1.58D+00  2.20D+00  3.00D+00
                    CP:  2.93D+00  2.56D+00  1.95D+00  1.68D+00  1.32D+00
 E= -2756.19931535785     Delta-E=       -0.000086906976 Rises=F Damp=F
 DIIS: error= 2.28D-04 at cycle  16 NSaved=  16.
 NSaved=16 IEnMin=16 EnMin= -2756.19931535785     IErMin=16 ErrMin= 2.28D-04
 ErrMax= 2.28D-04  0.00D+00 EMaxC= 1.00D-01 BMatC= 5.97D-05 BMatP= 9.76D-05
 IDIUse=3 WtCom= 9.98D-01 WtEn= 2.28D-03
 Coeff-Com: -0.354D-03 0.111D-03 0.214D-03 0.748D-04-0.112D-02 0.548D-02
 Coeff-Com:  0.823D-02 0.239D-01-0.162D-02-0.179D-01-0.348D-01-0.746D-01
 Coeff-Com: -0.208D-01 0.587D-01 0.318D+00 0.736D+00
 Coeff-En:   0.000D+00 0.000D+00 0.000D+00 0.000D+00 0.000D+00 0.000D+00
 Coeff-En:   0.000D+00 0.000D+00 0.000D+00 0.000D+00 0.000D+00 0.000D+00
 Coeff-En:   0.000D+00 0.000D+00 0.000D+00 0.100D+01
 Coeff:     -0.353D-03 0.111D-03 0.214D-03 0.746D-04-0.112D-02 0.547D-02
 Coeff:      0.821D-02 0.238D-01-0.161D-02-0.178D-01-0.348D-01-0.745D-01
 Coeff:     -0.207D-01 0.585D-01 0.318D+00 0.737D+00
 Gap=     0.068 Goal=   None    Shift=    0.000
 Gap=     0.113 Goal=   None    Shift=    0.000
 RMSDP=2.37D-05 MaxDP=5.16D-03 DE=-8.69D-05 OVMax= 9.14D-03

 Cycle  17  Pass 1  IDiag  1:
 RMSU=  6.21D-06    CP:  9.77D-01  3.09D-01  3.93D-01  1.61D-01  4.90D-01
                    CP:  7.33D-01  7.68D-01  1.58D+00  2.22D+00  3.00D+00
                    CP:  3.00D+00  2.79D+00  2.35D+00  2.14D+00  2.23D+00
                    CP:  1.64D+00
 E= -2756.19941701702     Delta-E=       -0.000101659170 Rises=F Damp=F
 DIIS: error= 2.00D-04 at cycle  17 NSaved=  17.
 NSaved=17 IEnMin=17 EnMin= -2756.19941701702     IErMin=17 ErrMin= 2.00D-04
 ErrMax= 2.00D-04  0.00D+00 EMaxC= 1.00D-01 BMatC= 4.94D-05 BMatP= 5.97D-05
 IDIUse=3 WtCom= 9.98D-01 WtEn= 2.00D-03
 Coeff-Com: -0.561D-03 0.709D-03-0.129D-03 0.116D-03 0.598D-03 0.521D-02
 Coeff-Com:  0.710D-02-0.296D-02-0.262D-01 0.186D-01 0.558D-01-0.545D-01
 Coeff-Com: -0.117D+00-0.356D+00-0.268D+00 0.689D+00 0.105D+01
 Coeff-En:   0.000D+00 0.000D+00 0.000D+00 0.000D+00 0.000D+00 0.000D+00
 Coeff-En:   0.000D+00 0.000D+00 0.000D+00 0.000D+00 0.000D+00 0.000D+00
 Coeff-En:   0.000D+00 0.000D+00 0.000D+00 0.000D+00 0.100D+01
 Coeff:     -0.560D-03 0.707D-03-0.128D-03 0.115D-03 0.597D-03 0.520D-02
 Coeff:      0.708D-02-0.296D-02-0.262D-01 0.186D-01 0.557D-01-0.544D-01
 Coeff:     -0.117D+00-0.356D+00-0.268D+00 0.688D+00 0.105D+01
 Gap=     0.069 Goal=   None    Shift=    0.000
 Gap=     0.113 Goal=   None    Shift=    0.000
 RMSDP=4.24D-05 MaxDP=9.72D-03 DE=-1.02D-04 OVMax= 1.69D-02

 Cycle  18  Pass 1  IDiag  1:
 RMSU=  1.33D-05    CP:  9.77D-01  3.11D-01  3.93D-01  1.62D-01  4.87D-01
                    CP:  7.28D-01  7.67D-01  1.57D+00  2.23D+00  3.00D+00
                    CP:  3.00D+00  3.00D+00  3.00D+00  2.96D+00  3.00D+00
                    CP:  3.00D+00  2.77D+00
 E= -2756.19958111110     Delta-E=       -0.000164094080 Rises=F Damp=F
 DIIS: error= 1.52D-04 at cycle  18 NSaved=  18.
 NSaved=18 IEnMin=18 EnMin= -2756.19958111110     IErMin=18 ErrMin= 1.52D-04
 ErrMax= 1.52D-04  0.00D+00 EMaxC= 1.00D-01 BMatC= 3.21D-05 BMatP= 4.94D-05
 IDIUse=3 WtCom= 9.98D-01 WtEn= 1.52D-03
 Coeff-Com: -0.403D-03 0.431D-03-0.215D-04 0.588D-04 0.259D-03 0.206D-02
 Coeff-Com:  0.686D-02 0.193D-01 0.244D-01-0.714D-01-0.144D-01 0.789D-01
 Coeff-Com:  0.464D-01-0.138D+00-0.395D+00-0.409D+00 0.435D+00 0.141D+01
 Coeff-En:   0.000D+00 0.000D+00 0.000D+00 0.000D+00 0.000D+00 0.000D+00
 Coeff-En:   0.000D+00 0.000D+00 0.000D+00 0.000D+00 0.000D+00 0.000D+00
 Coeff-En:   0.000D+00 0.000D+00 0.000D+00 0.000D+00 0.000D+00 0.100D+01
 Coeff:     -0.403D-03 0.430D-03-0.215D-04 0.587D-04 0.259D-03 0.205D-02
 Coeff:      0.685D-02 0.193D-01 0.243D-01-0.713D-01-0.144D-01 0.788D-01
 Coeff:      0.463D-01-0.138D+00-0.395D+00-0.408D+00 0.434D+00 0.141D+01
 Gap=     0.070 Goal=   None    Shift=    0.000
 Gap=     0.113 Goal=   None    Shift=    0.000
 RMSDP=5.52D-05 MaxDP=1.32D-02 DE=-1.64D-04 OVMax= 2.22D-02

 Cycle  19  Pass 1  IDiag  1:
 RMSU=  4.16D-05    CP:  9.77D-01  3.14D-01  3.94D-01  1.62D-01  4.83D-01
                    CP:  7.23D-01  7.65D-01  1.55D+00  2.24D+00  3.00D+00
                    CP:  3.00D+00  3.00D+00  3.00D+00  3.00D+00  3.00D+00
                    CP:  3.00D+00  3.00D+00  3.00D+00
 E= -2756.19975177144     Delta-E=       -0.000170660343 Rises=F Damp=F
 DIIS: error= 1.42D-04 at cycle  19 NSaved=  19.
 NSaved=19 IEnMin=19 EnMin= -2756.19975177144     IErMin=19 ErrMin= 1.42D-04
 ErrMax= 1.42D-04  0.00D+00 EMaxC= 1.00D-01 BMatC= 3.59D-05 BMatP= 3.21D-05
 IDIUse=3 WtCom= 9.98D-01 WtEn= 1.52D-03
 Coeff-Com: -0.169D-03-0.770D-04 0.208D-03-0.493D-06-0.506D-03-0.254D-03
 Coeff-Com:  0.723D-02 0.456D-01 0.695D-01-0.159D+00-0.109D+00 0.175D+00
 Coeff-Com:  0.222D+00 0.256D+00-0.171D+00-0.120D+01-0.663D+00 0.173D+01
 Coeff-Com:  0.805D+00
 Coeff-En:   0.000D+00 0.000D+00 0.000D+00 0.000D+00 0.000D+00 0.000D+00
 Coeff-En:   0.000D+00 0.000D+00 0.000D+00 0.000D+00 0.000D+00 0.000D+00
 Coeff-En:   0.000D+00 0.000D+00 0.000D+00 0.000D+00 0.000D+00 0.000D+00
 Coeff-En:   0.100D+01
 Coeff:     -0.168D-03-0.769D-04 0.208D-03-0.492D-06-0.505D-03-0.253D-03
 Coeff:      0.722D-02 0.455D-01 0.694D-01-0.159D+00-0.108D+00 0.175D+00
 Coeff:      0.222D+00 0.256D+00-0.171D+00-0.120D+01-0.662D+00 0.172D+01
 Coeff:      0.805D+00
 Gap=     0.071 Goal=   None    Shift=    0.000
 Gap=     0.113 Goal=   None    Shift=    0.000
 RMSDP=6.09D-05 MaxDP=1.45D-02 DE=-1.71D-04 OVMax= 2.43D-02

 Cycle  20  Pass 1  IDiag  1:
 RMSU=  3.09D-05    CP:  9.77D-01  3.17D-01  3.94D-01  1.63D-01  4.78D-01
                    CP:  7.16D-01  7.62D-01  1.53D+00  2.25D+00  3.00D+00
                    CP:  3.00D+00  3.00D+00  3.00D+00  3.00D+00  3.00D+00
                    CP:  3.00D+00  3.00D+00  3.00D+00  2.23D+00
 E= -2756.19988441784     Delta-E=       -0.000132646401 Rises=F Damp=F
 DIIS: error= 1.49D-04 at cycle  20 NSaved=  20.
 NSaved=20 IEnMin=20 EnMin= -2756.19988441784     IErMin=19 ErrMin= 1.42D-04
 ErrMax= 1.49D-04  0.00D+00 EMaxC= 1.00D-01 BMatC= 2.42D-05 BMatP= 3.21D-05
 IDIUse=3 WtCom= 9.99D-01 WtEn= 1.49D-03
 Coeff-Com: -0.136D-03-0.134D-03 0.285D-03-0.321D-04-0.613D-03 0.237D-02
 Coeff-Com:  0.712D-02 0.371D-01 0.321D-01-0.111D+00-0.876D-01 0.698D-01
 Coeff-Com:  0.143D+00 0.281D+00 0.171D+00-0.377D+00-0.745D+00 0.111D+00
 Coeff-Com:  0.483D+00 0.983D+00
 Coeff-En:   0.000D+00 0.000D+00 0.000D+00 0.000D+00 0.000D+00 0.000D+00
 Coeff-En:   0.000D+00 0.000D+00 0.000D+00 0.000D+00 0.000D+00 0.000D+00
 Coeff-En:   0.000D+00 0.000D+00 0.000D+00 0.000D+00 0.000D+00 0.000D+00
 Coeff-En:   0.000D+00 0.100D+01
 Coeff:     -0.136D-03-0.133D-03 0.284D-03-0.320D-04-0.612D-03 0.236D-02
 Coeff:      0.711D-02 0.370D-01 0.320D-01-0.111D+00-0.874D-01 0.697D-01
 Coeff:      0.143D+00 0.281D+00 0.171D+00-0.377D+00-0.743D+00 0.111D+00
 Coeff:      0.482D+00 0.983D+00
 Gap=     0.071 Goal=   None    Shift=    0.000
 Gap=     0.113 Goal=   None    Shift=    0.000
 RMSDP=3.54D-05 MaxDP=8.30D-03 DE=-1.33D-04 OVMax= 1.45D-02

 Cycle  21  Pass 1  IDiag  1:
 Restarting incremental Fock formation.
 E= -2756.19993218012     Delta-E=       -0.000047762275 Rises=F Damp=F
 DIIS: error= 4.27D-05 at cycle  21 NSaved=  20.
 NSaved=20 IEnMin=20 EnMin= -2756.19993218012     IErMin=20 ErrMin= 4.27D-05
 ErrMax= 4.27D-05  0.00D+00 EMaxC= 1.00D-01 BMatC= 4.02D-06 BMatP= 2.42D-05
 IDIUse=1 WtCom= 1.00D+00 WtEn= 0.00D+00
 Coeff-Com:  0.208D-03-0.393D-03 0.323D-04-0.202D-03 0.226D-02 0.198D-02
 Coeff-Com:  0.527D-02-0.142D-01-0.992D-02-0.426D-02-0.264D-01 0.142D-02
 Coeff-Com:  0.394D-01 0.146D+00 0.354D+00-0.153D+00-0.638D+00-0.981D-01
 Coeff-Com:  0.554D+00 0.841D+00
 Coeff:      0.208D-03-0.393D-03 0.323D-04-0.202D-03 0.226D-02 0.198D-02
 Coeff:      0.527D-02-0.142D-01-0.992D-02-0.426D-02-0.264D-01 0.142D-02
 Coeff:      0.394D-01 0.146D+00 0.354D+00-0.153D+00-0.638D+00-0.981D-01
 Coeff:      0.554D+00 0.841D+00
 Gap=     0.072 Goal=   None    Shift=    0.000
 Gap=     0.113 Goal=   None    Shift=    0.000
 RMSDP=1.40D-05 MaxDP=3.26D-03 DE=-4.78D-05 OVMax= 5.83D-03

 Cycle  22  Pass 1  IDiag  1:
 RMSU=  1.40D-05    CP:  1.00D+00
 E= -2756.19994405683     Delta-E=       -0.000011876709 Rises=F Damp=F
 DIIS: error= 4.75D-05 at cycle  22 NSaved=  20.
 NSaved=20 IEnMin=20 EnMin= -2756.19994405683     IErMin=19 ErrMin= 4.27D-05
 ErrMax= 4.75D-05  0.00D+00 EMaxC= 1.00D-01 BMatC= 3.49D-06 BMatP= 4.02D-06
 IDIUse=1 WtCom= 1.00D+00 WtEn= 0.00D+00
 Coeff-Com:  0.204D-03-0.228D-03-0.709D-04 0.383D-03-0.980D-03-0.249D-02
 Coeff-Com: -0.109D-01 0.147D-01 0.846D-02-0.242D-01-0.141D-01-0.372D-02
 Coeff-Com:  0.660D-01 0.238D+00-0.188D-01-0.373D+00-0.128D+00 0.168D+00
 Coeff-Com:  0.508D+00 0.573D+00
 Coeff:      0.204D-03-0.228D-03-0.709D-04 0.383D-03-0.980D-03-0.249D-02
 Coeff:     -0.109D-01 0.147D-01 0.846D-02-0.242D-01-0.141D-01-0.372D-02
 Coeff:      0.660D-01 0.238D+00-0.188D-01-0.373D+00-0.128D+00 0.168D+00
 Coeff:      0.508D+00 0.573D+00
 Gap=     0.072 Goal=   None    Shift=    0.000
 Gap=     0.113 Goal=   None    Shift=    0.000
 RMSDP=6.12D-06 MaxDP=1.32D-03 DE=-1.19D-05 OVMax= 2.37D-03

 Cycle  23  Pass 1  IDiag  1:
 RMSU=  2.22D-06    CP:  1.00D+00  1.41D+00
 E= -2756.19994868332     Delta-E=       -0.000004626489 Rises=F Damp=F
 DIIS: error= 3.26D-05 at cycle  23 NSaved=  20.
 NSaved=20 IEnMin=20 EnMin= -2756.19994868332     IErMin=20 ErrMin= 3.26D-05
 ErrMax= 3.26D-05  0.00D+00 EMaxC= 1.00D-01 BMatC= 9.62D-07 BMatP= 3.49D-06
 IDIUse=1 WtCom= 1.00D+00 WtEn= 0.00D+00
 Coeff-Com:  0.234D-04 0.302D-04-0.579D-03-0.909D-03-0.251D-02 0.191D-02
 Coeff-Com:  0.953D-02 0.645D-02 0.148D-02-0.948D-02-0.174D-01-0.170D-01
 Coeff-Com: -0.448D-01 0.565D-01 0.445D-01-0.234D-01-0.122D+00-0.158D+00
 Coeff-Com:  0.189D+00 0.109D+01
 Coeff:      0.234D-04 0.302D-04-0.579D-03-0.909D-03-0.251D-02 0.191D-02
 Coeff:      0.953D-02 0.645D-02 0.148D-02-0.948D-02-0.174D-01-0.170D-01
 Coeff:     -0.448D-01 0.565D-01 0.445D-01-0.234D-01-0.122D+00-0.158D+00
 Coeff:      0.189D+00 0.109D+01
 Gap=     0.072 Goal=   None    Shift=    0.000
 Gap=     0.113 Goal=   None    Shift=    0.000
 RMSDP=9.94D-06 MaxDP=2.08D-03 DE=-4.63D-06 OVMax= 3.85D-03

 Cycle  24  Pass 1  IDiag  1:
 RMSU=  1.77D-06    CP:  1.00D+00  2.08D+00  2.27D+00
 E= -2756.19995336062     Delta-E=       -0.000004677301 Rises=F Damp=F
 DIIS: error= 4.54D-05 at cycle  24 NSaved=  20.
 NSaved=20 IEnMin=20 EnMin= -2756.19995336062     IErMin=19 ErrMin= 3.26D-05
 ErrMax= 4.54D-05  0.00D+00 EMaxC= 1.00D-01 BMatC= 2.24D-06 BMatP= 9.62D-07
 IDIUse=1 WtCom= 1.00D+00 WtEn= 0.00D+00
 Coeff-Com:  0.220D-03 0.111D-03 0.586D-03-0.816D-03 0.356D-02-0.229D-02
 Coeff-Com:  0.482D-02 0.105D-01-0.892D-02-0.295D-01-0.448D-01-0.793D-01
 Coeff-Com:  0.109D+00 0.132D+00-0.197D-01-0.207D+00-0.278D+00-0.502D-01
 Coeff-Com:  0.825D+00 0.635D+00
 Coeff:      0.220D-03 0.111D-03 0.586D-03-0.816D-03 0.356D-02-0.229D-02
 Coeff:      0.482D-02 0.105D-01-0.892D-02-0.295D-01-0.448D-01-0.793D-01
 Coeff:      0.109D+00 0.132D+00-0.197D-01-0.207D+00-0.278D+00-0.502D-01
 Coeff:      0.825D+00 0.635D+00
 Gap=     0.072 Goal=   None    Shift=    0.000
 Gap=     0.112 Goal=   None    Shift=    0.000
 RMSDP=6.10D-06 MaxDP=1.37D-03 DE=-4.68D-06 OVMax= 2.23D-03

 Cycle  25  Pass 1  IDiag  1:
 RMSU=  1.71D-06    CP:  1.00D+00  2.48D+00  2.96D+00  1.40D+00
 E= -2756.19995600105     Delta-E=       -0.000002640436 Rises=F Damp=F
 DIIS: error= 2.32D-05 at cycle  25 NSaved=  20.
 NSaved=20 IEnMin=20 EnMin= -2756.19995600105     IErMin=20 ErrMin= 2.32D-05
 ErrMax= 2.32D-05  0.00D+00 EMaxC= 1.00D-01 BMatC= 7.36D-07 BMatP= 9.62D-07
 IDIUse=1 WtCom= 1.00D+00 WtEn= 0.00D+00
 Coeff-Com:  0.290D-03 0.103D-02 0.259D-02 0.305D-02-0.919D-02-0.563D-02
 Coeff-Com:  0.658D-02 0.684D-02-0.322D-02-0.202D-01-0.311D-01 0.226D-01
 Coeff-Com:  0.867D-01-0.182D-04-0.889D-01-0.146D-01 0.511D-01-0.261D+00
 Coeff-Com: -0.226D-01 0.128D+01
 Coeff:      0.290D-03 0.103D-02 0.259D-02 0.305D-02-0.919D-02-0.563D-02
 Coeff:      0.658D-02 0.684D-02-0.322D-02-0.202D-01-0.311D-01 0.226D-01
 Coeff:      0.867D-01-0.182D-04-0.889D-01-0.146D-01 0.511D-01-0.261D+00
 Coeff:     -0.226D-01 0.128D+01
 Gap=     0.072 Goal=   None    Shift=    0.000
 Gap=     0.112 Goal=   None    Shift=    0.000
 RMSDP=4.14D-06 MaxDP=8.29D-04 DE=-2.64D-06 OVMax= 1.10D-03

 Cycle  26  Pass 1  IDiag  1:
 RMSU=  1.64D-06    CP:  1.00D+00  2.61D+00  3.00D+00  2.14D+00  2.76D+00
 E= -2756.19995781871     Delta-E=       -0.000001817653 Rises=F Damp=F
 DIIS: error= 1.61D-05 at cycle  26 NSaved=  20.
 NSaved=20 IEnMin=20 EnMin= -2756.19995781871     IErMin=20 ErrMin= 1.61D-05
 ErrMax= 1.61D-05  0.00D+00 EMaxC= 1.00D-01 BMatC= 3.30D-07 BMatP= 7.36D-07
 IDIUse=1 WtCom= 1.00D+00 WtEn= 0.00D+00
 Coeff-Com:  0.415D-03 0.235D-02 0.177D-02-0.595D-02-0.974D-02 0.336D-02
 Coeff-Com:  0.189D-01 0.246D-01 0.292D-02-0.433D-01-0.884D-01 0.838D-01
 Coeff-Com:  0.646D-01 0.546D-01 0.889D-01 0.428D-01-0.783D+00-0.553D+00
 Coeff-Com:  0.112D+01 0.976D+00
 Coeff:      0.415D-03 0.235D-02 0.177D-02-0.595D-02-0.974D-02 0.336D-02
 Coeff:      0.189D-01 0.246D-01 0.292D-02-0.433D-01-0.884D-01 0.838D-01
 Coeff:      0.646D-01 0.546D-01 0.889D-01 0.428D-01-0.783D+00-0.553D+00
 Coeff:      0.112D+01 0.976D+00
 Gap=     0.072 Goal=   None    Shift=    0.000
 Gap=     0.112 Goal=   None    Shift=    0.000
 RMSDP=5.97D-06 MaxDP=1.20D-03 DE=-1.82D-06 OVMax= 1.81D-03

 Cycle  27  Pass 1  IDiag  1:
 RMSU=  3.32D-06    CP:  1.00D+00  2.87D+00  3.00D+00  3.00D+00  3.00D+00
                    CP:  2.39D+00
 E= -2756.19995963815     Delta-E=       -0.000001819444 Rises=F Damp=F
 DIIS: error= 9.50D-06 at cycle  27 NSaved=  20.
 NSaved=20 IEnMin=20 EnMin= -2756.19995963815     IErMin=20 ErrMin= 9.50D-06
 ErrMax= 9.50D-06  0.00D+00 EMaxC= 1.00D-01 BMatC= 1.23D-07 BMatP= 3.30D-07
 IDIUse=1 WtCom= 1.00D+00 WtEn= 0.00D+00
 Coeff-Com:  0.128D-02-0.102D-03-0.182D-02-0.392D-02 0.432D-03 0.709D-02
 Coeff-Com:  0.162D-01 0.106D-01-0.736D-02-0.560D-01-0.280D-02 0.328D-01
 Coeff-Com:  0.779D-01 0.402D-01-0.346D-01-0.213D+00-0.191D+00-0.161D+00
 Coeff-Com:  0.362D+00 0.112D+01
 Coeff:      0.128D-02-0.102D-03-0.182D-02-0.392D-02 0.432D-03 0.709D-02
 Coeff:      0.162D-01 0.106D-01-0.736D-02-0.560D-01-0.280D-02 0.328D-01
 Coeff:      0.779D-01 0.402D-01-0.346D-01-0.213D+00-0.191D+00-0.161D+00
 Coeff:      0.362D+00 0.112D+01
 Gap=     0.072 Goal=   None    Shift=    0.000
 Gap=     0.112 Goal=   None    Shift=    0.000
 RMSDP=4.31D-06 MaxDP=8.27D-04 DE=-1.82D-06 OVMax= 1.35D-03

 Cycle  28  Pass 1  IDiag  1:
 RMSU=  1.62D-06    CP:  1.00D+00  3.00D+00  3.00D+00  3.00D+00  3.00D+00
                    CP:  3.00D+00  1.89D+00
 E= -2756.19996049601     Delta-E=       -0.000000857861 Rises=F Damp=F
 DIIS: error= 8.20D-06 at cycle  28 NSaved=  20.
 NSaved=20 IEnMin=20 EnMin= -2756.19996049601     IErMin=20 ErrMin= 8.20D-06
 ErrMax= 8.20D-06  0.00D+00 EMaxC= 1.00D-01 BMatC= 9.05D-08 BMatP= 1.23D-07
 IDIUse=1 WtCom= 1.00D+00 WtEn= 0.00D+00
 Coeff-Com: -0.735D-03 0.234D-03 0.167D-02 0.831D-03-0.285D-02-0.154D-02
 Coeff-Com: -0.357D-03 0.370D-02 0.314D-02-0.202D-01 0.328D-04 0.263D-01
 Coeff-Com: -0.234D-01-0.528D-01 0.195D+00 0.109D+00-0.588D+00-0.168D+00
 Coeff-Com:  0.807D+00 0.712D+00
 Coeff:     -0.735D-03 0.234D-03 0.167D-02 0.831D-03-0.285D-02-0.154D-02
 Coeff:     -0.357D-03 0.370D-02 0.314D-02-0.202D-01 0.328D-04 0.263D-01
 Coeff:     -0.234D-01-0.528D-01 0.195D+00 0.109D+00-0.588D+00-0.168D+00
 Coeff:      0.807D+00 0.712D+00
 Gap=     0.072 Goal=   None    Shift=    0.000
 Gap=     0.112 Goal=   None    Shift=    0.000
 RMSDP=2.39D-06 MaxDP=4.57D-04 DE=-8.58D-07 OVMax= 7.94D-04

 Cycle  29  Pass 1  IDiag  1:
 RMSU=  1.03D-06    CP:  1.00D+00  3.00D+00  3.00D+00  3.00D+00  3.00D+00
                    CP:  3.00D+00  2.39D+00  1.86D+00
 E= -2756.19996082978     Delta-E=       -0.000000333766 Rises=F Damp=F
 DIIS: error= 6.54D-06 at cycle  29 NSaved=  20.
 NSaved=20 IEnMin=20 EnMin= -2756.19996082978     IErMin=20 ErrMin= 6.54D-06
 ErrMax= 6.54D-06  0.00D+00 EMaxC= 1.00D-01 BMatC= 4.65D-08 BMatP= 9.05D-08
 IDIUse=1 WtCom= 1.00D+00 WtEn= 0.00D+00
 Coeff-Com:  0.772D-03 0.856D-03 0.629D-03-0.191D-02-0.258D-02-0.220D-02
 Coeff-Com:  0.524D-02 0.534D-02-0.112D-01-0.620D-02 0.304D-02-0.177D-01
 Coeff-Com: -0.139D-02 0.186D+00 0.809D-01-0.373D+00-0.201D+00 0.173D+00
 Coeff-Com:  0.426D+00 0.735D+00
 Coeff:      0.772D-03 0.856D-03 0.629D-03-0.191D-02-0.258D-02-0.220D-02
 Coeff:      0.524D-02 0.534D-02-0.112D-01-0.620D-02 0.304D-02-0.177D-01
 Coeff:     -0.139D-02 0.186D+00 0.809D-01-0.373D+00-0.201D+00 0.173D+00
 Coeff:      0.426D+00 0.735D+00
 Gap=     0.072 Goal=   None    Shift=    0.000
 Gap=     0.112 Goal=   None    Shift=    0.000
 RMSDP=1.48D-06 MaxDP=2.54D-04 DE=-3.34D-07 OVMax= 4.52D-04

 Cycle  30  Pass 1  IDiag  1:
 RMSU=  4.76D-07    CP:  1.00D+00  3.00D+00  3.00D+00  3.00D+00  3.00D+00
                    CP:  3.00D+00  2.72D+00  2.39D+00  1.11D+00
 E= -2756.19996099522     Delta-E=       -0.000000165443 Rises=F Damp=F
 DIIS: error= 5.96D-06 at cycle  30 NSaved=  20.
 NSaved=20 IEnMin=20 EnMin= -2756.19996099522     IErMin=20 ErrMin= 5.96D-06
 ErrMax= 5.96D-06  0.00D+00 EMaxC= 1.00D-01 BMatC= 3.57D-08 BMatP= 4.65D-08
 IDIUse=1 WtCom= 1.00D+00 WtEn= 0.00D+00
 Coeff-Com:  0.195D-03-0.479D-03-0.997D-03-0.283D-02-0.273D-02 0.423D-02
 Coeff-Com:  0.832D-02 0.163D-02-0.728D-02-0.175D-01 0.510D-02 0.378D-01
 Coeff-Com:  0.187D-01-0.241D-01 0.873D-01-0.291D-01-0.361D+00-0.109D+00
 Coeff-Com:  0.424D+00 0.967D+00
 Coeff:      0.195D-03-0.479D-03-0.997D-03-0.283D-02-0.273D-02 0.423D-02
 Coeff:      0.832D-02 0.163D-02-0.728D-02-0.175D-01 0.510D-02 0.378D-01
 Coeff:      0.187D-01-0.241D-01 0.873D-01-0.291D-01-0.361D+00-0.109D+00
 Coeff:      0.424D+00 0.967D+00
 Gap=     0.072 Goal=   None    Shift=    0.000
 Gap=     0.112 Goal=   None    Shift=    0.000
 RMSDP=1.36D-06 MaxDP=2.17D-04 DE=-1.65D-07 OVMax= 4.69D-04

 Cycle  31  Pass 1  IDiag  1:
 RMSU=  4.91D-07    CP:  1.00D+00  3.00D+00  3.00D+00  3.00D+00  3.00D+00
                    CP:  3.00D+00  2.98D+00  2.85D+00  1.53D+00  1.77D+00
 E= -2756.19996113270     Delta-E=       -0.000000137482 Rises=F Damp=F
 DIIS: error= 3.88D-06 at cycle  31 NSaved=  20.
 NSaved=20 IEnMin=20 EnMin= -2756.19996113270     IErMin=20 ErrMin= 3.88D-06
 ErrMax= 3.88D-06  0.00D+00 EMaxC= 1.00D-01 BMatC= 1.62D-08 BMatP= 3.57D-08
 IDIUse=1 WtCom= 1.00D+00 WtEn= 0.00D+00
 Coeff-Com: -0.830D-03-0.558D-04-0.944D-03-0.538D-04 0.922D-03 0.353D-02
 Coeff-Com:  0.379D-02-0.283D-02-0.143D-01 0.937D-02 0.241D-01-0.559D-01
 Coeff-Com: -0.472D-01 0.213D+00 0.685D-01-0.287D+00-0.298D+00-0.122D+00
 Coeff-Com:  0.496D+00 0.101D+01
 Coeff:     -0.830D-03-0.558D-04-0.944D-03-0.538D-04 0.922D-03 0.353D-02
 Coeff:      0.379D-02-0.283D-02-0.143D-01 0.937D-02 0.241D-01-0.559D-01
 Coeff:     -0.472D-01 0.213D+00 0.685D-01-0.287D+00-0.298D+00-0.122D+00
 Coeff:      0.496D+00 0.101D+01
 Gap=     0.072 Goal=   None    Shift=    0.000
 Gap=     0.112 Goal=   None    Shift=    0.000
 RMSDP=1.16D-06 MaxDP=1.84D-04 DE=-1.37D-07 OVMax= 4.31D-04

 Cycle  32  Pass 1  IDiag  1:
 RMSU=  7.00D-07    CP:  1.00D+00  3.00D+00  3.00D+00  3.00D+00  3.00D+00
                    CP:  3.00D+00  3.00D+00  3.00D+00  1.87D+00  2.76D+00
                    CP:  1.93D+00
 E= -2756.19996123001     Delta-E=       -0.000000097303 Rises=F Damp=F
 DIIS: error= 2.82D-06 at cycle  32 NSaved=  20.
 NSaved=20 IEnMin=20 EnMin= -2756.19996123001     IErMin=20 ErrMin= 2.82D-06
 ErrMax= 2.82D-06  0.00D+00 EMaxC= 1.00D-01 BMatC= 1.16D-08 BMatP= 1.62D-08
 IDIUse=1 WtCom= 1.00D+00 WtEn= 0.00D+00
 Coeff-Com:  0.119D-02 0.200D-02 0.224D-02-0.258D-02-0.903D-02-0.255D-02
 Coeff-Com:  0.571D-02 0.149D-01 0.147D-01-0.137D-01-0.833D-01-0.380D-01
 Coeff-Com:  0.649D-01 0.958D-01 0.189D+00-0.991D-01-0.462D+00-0.596D+00
 Coeff-Com:  0.720D+00 0.120D+01
 Coeff:      0.119D-02 0.200D-02 0.224D-02-0.258D-02-0.903D-02-0.255D-02
 Coeff:      0.571D-02 0.149D-01 0.147D-01-0.137D-01-0.833D-01-0.380D-01
 Coeff:      0.649D-01 0.958D-01 0.189D+00-0.991D-01-0.462D+00-0.596D+00
 Coeff:      0.720D+00 0.120D+01
 Gap=     0.072 Goal=   None    Shift=    0.000
 Gap=     0.112 Goal=   None    Shift=    0.000
 RMSDP=1.43D-06 MaxDP=1.88D-04 DE=-9.73D-08 OVMax= 5.73D-04

 Cycle  33  Pass 1  IDiag  1:
 RMSU=  5.32D-07    CP:  1.00D+00  3.00D+00  3.00D+00  3.00D+00  3.00D+00
                    CP:  3.00D+00  3.00D+00  3.00D+00  2.56D+00  3.00D+00
                    CP:  3.00D+00  2.22D+00
 E= -2756.19996131495     Delta-E=       -0.000000084946 Rises=F Damp=F
 DIIS: error= 2.77D-06 at cycle  33 NSaved=  20.
 NSaved=20 IEnMin=20 EnMin= -2756.19996131495     IErMin=20 ErrMin= 2.77D-06
 ErrMax= 2.77D-06  0.00D+00 EMaxC= 1.00D-01 BMatC= 1.02D-08 BMatP= 1.16D-08
 IDIUse=1 WtCom= 1.00D+00 WtEn= 0.00D+00
 Coeff-Com:  0.341D-03 0.938D-05-0.207D-02-0.218D-02 0.393D-02 0.229D-02
 Coeff-Com:  0.266D-02 0.399D-02-0.216D-02-0.311D-01-0.247D-01 0.564D-02
 Coeff-Com:  0.476D-01 0.131D+00-0.553D-03-0.204D+00-0.380D+00 0.255D-01
 Coeff-Com:  0.569D+00 0.854D+00
 Coeff:      0.341D-03 0.938D-05-0.207D-02-0.218D-02 0.393D-02 0.229D-02
 Coeff:      0.266D-02 0.399D-02-0.216D-02-0.311D-01-0.247D-01 0.564D-02
 Coeff:      0.476D-01 0.131D+00-0.553D-03-0.204D+00-0.380D+00 0.255D-01
 Coeff:      0.569D+00 0.854D+00
 Gap=     0.072 Goal=   None    Shift=    0.000
 Gap=     0.112 Goal=   None    Shift=    0.000
 RMSDP=7.17D-07 MaxDP=1.13D-04 DE=-8.49D-08 OVMax= 2.38D-04

 Cycle  34  Pass 1  IDiag  1:
 RMSU=  4.30D-07    CP:  1.00D+00  3.00D+00  3.00D+00  3.00D+00  3.00D+00
                    CP:  3.00D+00  3.00D+00  3.00D+00  2.67D+00  3.00D+00
                    CP:  3.00D+00  2.83D+00  1.69D+00
 E= -2756.19996135131     Delta-E=       -0.000000036357 Rises=F Damp=F
 DIIS: error= 1.87D-06 at cycle  34 NSaved=  20.
 NSaved=20 IEnMin=20 EnMin= -2756.19996135131     IErMin=20 ErrMin= 1.87D-06
 ErrMax= 1.87D-06  0.00D+00 EMaxC= 1.00D-01 BMatC= 5.71D-09 BMatP= 1.02D-08
 IDIUse=1 WtCom= 1.00D+00 WtEn= 0.00D+00
 Coeff-Com: -0.574D-04 0.234D-02 0.889D-03 0.239D-03-0.251D-02-0.225D-02
 Coeff-Com:  0.242D-02 0.109D-01 0.199D-01-0.927D-02-0.506D-01-0.141D-01
 Coeff-Com:  0.282D-01 0.688D-01 0.101D+00-0.572D-01-0.407D+00-0.164D+00
 Coeff-Com:  0.684D+00 0.788D+00
 Coeff:     -0.574D-04 0.234D-02 0.889D-03 0.239D-03-0.251D-02-0.225D-02
 Coeff:      0.242D-02 0.109D-01 0.199D-01-0.927D-02-0.506D-01-0.141D-01
 Coeff:      0.282D-01 0.688D-01 0.101D+00-0.572D-01-0.407D+00-0.164D+00
 Coeff:      0.684D+00 0.788D+00
 Gap=     0.072 Goal=   None    Shift=    0.000
 Gap=     0.112 Goal=   None    Shift=    0.000
 RMSDP=7.49D-07 MaxDP=1.45D-04 DE=-3.64D-08 OVMax= 2.31D-04

 Cycle  35  Pass 1  IDiag  1:
 RMSU=  3.35D-07    CP:  1.00D+00  3.00D+00  3.00D+00  3.00D+00  3.00D+00
                    CP:  3.00D+00  3.00D+00  3.00D+00  2.53D+00  3.00D+00
                    CP:  3.00D+00  3.00D+00  2.33D+00  2.13D+00
 E= -2756.19996137800     Delta-E=       -0.000000026689 Rises=F Damp=F
 DIIS: error= 1.63D-06 at cycle  35 NSaved=  20.
 NSaved=20 IEnMin=20 EnMin= -2756.19996137800     IErMin=20 ErrMin= 1.63D-06
 ErrMax= 1.63D-06  0.00D+00 EMaxC= 1.00D-01 BMatC= 3.38D-09 BMatP= 5.71D-09
 IDIUse=1 WtCom= 1.00D+00 WtEn= 0.00D+00
 Coeff-Com:  0.265D-02 0.153D-02-0.512D-02-0.327D-02-0.495D-03-0.316D-02
 Coeff-Com:  0.498D-02 0.531D-01 0.170D-01-0.883D-01-0.652D-01-0.158D-01
 Coeff-Com:  0.115D+00 0.258D+00 0.211D+00-0.445D+00-0.561D+00 0.315D-01
 Coeff-Com:  0.497D+00 0.995D+00
 Coeff:      0.265D-02 0.153D-02-0.512D-02-0.327D-02-0.495D-03-0.316D-02
 Coeff:      0.498D-02 0.531D-01 0.170D-01-0.883D-01-0.652D-01-0.158D-01
 Coeff:      0.115D+00 0.258D+00 0.211D+00-0.445D+00-0.561D+00 0.315D-01
 Coeff:      0.497D+00 0.995D+00
 Gap=     0.072 Goal=   None    Shift=    0.000
 Gap=     0.112 Goal=   None    Shift=    0.000
 RMSDP=6.15D-07 MaxDP=1.05D-04 DE=-2.67D-08 OVMax= 2.35D-04

 Cycle  36  Pass 1  IDiag  1:
 RMSU=  3.20D-07    CP:  1.00D+00  3.00D+00  3.00D+00  3.00D+00  3.00D+00
                    CP:  3.00D+00  3.00D+00  3.00D+00  2.78D+00  3.00D+00
                    CP:  3.00D+00  3.00D+00  2.96D+00  2.67D+00  1.66D+00
 E= -2756.19996139912     Delta-E=       -0.000000021122 Rises=F Damp=F
 DIIS: error= 1.78D-06 at cycle  36 NSaved=  20.
 NSaved=20 IEnMin=20 EnMin= -2756.19996139912     IErMin=19 ErrMin= 1.63D-06
 ErrMax= 1.78D-06  0.00D+00 EMaxC= 1.00D-01 BMatC= 2.86D-09 BMatP= 3.38D-09
 IDIUse=1 WtCom= 1.00D+00 WtEn= 0.00D+00
 Coeff-Com:  0.103D-02-0.388D-02-0.110D-02-0.155D-02-0.317D-02-0.216D-03
 Coeff-Com:  0.186D-01 0.112D-01 0.105D-01-0.318D-01-0.968D-01-0.393D-02
 Coeff-Com:  0.136D+00 0.287D+00 0.339D-01-0.372D+00-0.693D+00-0.196D+00
 Coeff-Com:  0.102D+01 0.889D+00
 Coeff:      0.103D-02-0.388D-02-0.110D-02-0.155D-02-0.317D-02-0.216D-03
 Coeff:      0.186D-01 0.112D-01 0.105D-01-0.318D-01-0.968D-01-0.393D-02
 Coeff:      0.136D+00 0.287D+00 0.339D-01-0.372D+00-0.693D+00-0.196D+00
 Coeff:      0.102D+01 0.889D+00
 Gap=     0.072 Goal=   None    Shift=    0.000
 Gap=     0.112 Goal=   None    Shift=    0.000
 RMSDP=6.99D-07 MaxDP=1.25D-04 DE=-2.11D-08 OVMax= 2.61D-04

 Cycle  37  Pass 1  IDiag  1:
 RMSU=  3.74D-07    CP:  1.00D+00  3.00D+00  3.00D+00  3.00D+00  3.00D+00
                    CP:  3.00D+00  3.00D+00  3.00D+00  3.00D+00  3.00D+00
                    CP:  3.00D+00  3.00D+00  3.00D+00  3.00D+00  2.49D+00
                    CP:  2.10D+00
 E= -2756.19996141614     Delta-E=       -0.000000017024 Rises=F Damp=F
 DIIS: error= 1.04D-06 at cycle  37 NSaved=  20.
 NSaved=20 IEnMin=20 EnMin= -2756.19996141614     IErMin=20 ErrMin= 1.04D-06
 ErrMax= 1.04D-06  0.00D+00 EMaxC= 1.00D-01 BMatC= 1.84D-09 BMatP= 2.86D-09
 IDIUse=1 WtCom= 1.00D+00 WtEn= 0.00D+00
 Coeff-Com: -0.232D-03 0.430D-03-0.332D-02-0.619D-05 0.275D-02-0.164D-01
 Coeff-Com: -0.852D-02 0.686D-01 0.140D-01-0.100D+00-0.722D-01 0.174D-01
 Coeff-Com:  0.163D+00 0.239D+00-0.584D-01-0.637D+00-0.430D+00 0.245D+00
 Coeff-Com:  0.814D+00 0.762D+00
 Coeff:     -0.232D-03 0.430D-03-0.332D-02-0.619D-05 0.275D-02-0.164D-01
 Coeff:     -0.852D-02 0.686D-01 0.140D-01-0.100D+00-0.722D-01 0.174D-01
 Coeff:      0.163D+00 0.239D+00-0.584D-01-0.637D+00-0.430D+00 0.245D+00
 Coeff:      0.814D+00 0.762D+00
 Gap=     0.072 Goal=   None    Shift=    0.000
 Gap=     0.112 Goal=   None    Shift=    0.000
 RMSDP=5.67D-07 MaxDP=1.10D-04 DE=-1.70D-08 OVMax= 1.76D-04

 Cycle  38  Pass 1  IDiag  1:
 RMSU=  2.72D-07    CP:  1.00D+00  3.00D+00  3.00D+00  3.00D+00  3.00D+00
                    CP:  3.00D+00  3.00D+00  3.00D+00  3.00D+00  3.00D+00
                    CP:  3.00D+00  3.00D+00  3.00D+00  3.00D+00  3.00D+00
                    CP:  2.75D+00  1.98D+00
 E= -2756.19996142482     Delta-E=       -0.000000008675 Rises=F Damp=F
 DIIS: error= 9.90D-07 at cycle  38 NSaved=  20.
 NSaved=20 IEnMin=20 EnMin= -2756.19996142482     IErMin=20 ErrMin= 9.90D-07
 ErrMax= 9.90D-07  0.00D+00 EMaxC= 1.00D-01 BMatC= 8.35D-10 BMatP= 1.84D-09
 IDIUse=1 WtCom= 1.00D+00 WtEn= 0.00D+00
 Coeff-Com:  0.927D-03 0.175D-03 0.194D-02-0.249D-02-0.222D-01-0.673D-02
 Coeff-Com:  0.442D-01 0.262D-01-0.761D-02-0.589D-01-0.105D+00-0.345D-01
 Coeff-Com:  0.260D+00 0.191D+00-0.276D+00-0.330D+00-0.234D+00 0.286D+00
 Coeff-Com:  0.592D+00 0.675D+00
 Coeff:      0.927D-03 0.175D-03 0.194D-02-0.249D-02-0.222D-01-0.673D-02
 Coeff:      0.442D-01 0.262D-01-0.761D-02-0.589D-01-0.105D+00-0.345D-01
 Coeff:      0.260D+00 0.191D+00-0.276D+00-0.330D+00-0.234D+00 0.286D+00
 Coeff:      0.592D+00 0.675D+00
 Gap=     0.072 Goal=   None    Shift=    0.000
 Gap=     0.112 Goal=   None    Shift=    0.000
 RMSDP=3.13D-07 MaxDP=6.20D-05 DE=-8.67D-09 OVMax= 9.51D-05

 Cycle  39  Pass 1  IDiag  1:
 RMSU=  9.43D-08    CP:  1.00D+00  3.00D+00  3.00D+00  3.00D+00  3.00D+00
                    CP:  3.00D+00  3.00D+00  3.00D+00  3.00D+00  3.00D+00
                    CP:  3.00D+00  3.00D+00  3.00D+00  3.00D+00  3.00D+00
                    CP:  3.00D+00  2.54D+00  1.66D+00
 E= -2756.19996142737     Delta-E=       -0.000000002555 Rises=F Damp=F
 DIIS: error= 7.68D-07 at cycle  39 NSaved=  20.
 NSaved=20 IEnMin=20 EnMin= -2756.19996142737     IErMin=20 ErrMin= 7.68D-07
 ErrMax= 7.68D-07  0.00D+00 EMaxC= 1.00D-01 BMatC= 3.82D-10 BMatP= 8.35D-10
 IDIUse=1 WtCom= 1.00D+00 WtEn= 0.00D+00
 Coeff-Com:  0.196D-02 0.286D-02-0.190D-02-0.998D-02-0.172D-02 0.314D-02
 Coeff-Com:  0.105D-01 0.312D-01-0.754D-02-0.689D-01-0.943D-01 0.654D-01
 Coeff-Com:  0.162D+00 0.815D-01-0.422D-01-0.309D+00-0.146D+00 0.182D+00
 Coeff-Com:  0.516D+00 0.624D+00
 Coeff:      0.196D-02 0.286D-02-0.190D-02-0.998D-02-0.172D-02 0.314D-02
 Coeff:      0.105D-01 0.312D-01-0.754D-02-0.689D-01-0.943D-01 0.654D-01
 Coeff:      0.162D+00 0.815D-01-0.422D-01-0.309D+00-0.146D+00 0.182D+00
 Coeff:      0.516D+00 0.624D+00
 Gap=     0.072 Goal=   None    Shift=    0.000
 Gap=     0.112 Goal=   None    Shift=    0.000
 RMSDP=1.31D-07 MaxDP=2.56D-05 DE=-2.55D-09 OVMax= 3.87D-05

 Cycle  40  Pass 1  IDiag  1:
 RMSU=  7.01D-08    CP:  1.00D+00  3.00D+00  3.00D+00  3.00D+00  3.00D+00
                    CP:  3.00D+00  3.00D+00  3.00D+00  3.00D+00  3.00D+00
                    CP:  3.00D+00  3.00D+00  3.00D+00  3.00D+00  3.00D+00
                    CP:  3.00D+00  2.77D+00  1.86D+00  1.46D+00
 E= -2756.19996142803     Delta-E=       -0.000000000653 Rises=F Damp=F
 DIIS: error= 5.38D-07 at cycle  40 NSaved=  20.
 NSaved=20 IEnMin=20 EnMin= -2756.19996142803     IErMin=20 ErrMin= 5.38D-07
 ErrMax= 5.38D-07  0.00D+00 EMaxC= 1.00D-01 BMatC= 1.71D-10 BMatP= 3.82D-10
 IDIUse=1 WtCom= 1.00D+00 WtEn= 0.00D+00
 Coeff-Com:  0.537D-03-0.676D-03-0.612D-03 0.118D-02-0.251D-02 0.845D-03
 Coeff-Com:  0.112D-01 0.275D-02-0.185D-01-0.362D-01 0.630D-02 0.518D-01
 Coeff-Com:  0.660D-01 0.221D-02-0.118D+00-0.102D+00 0.807D-02 0.137D+00
 Coeff-Com:  0.412D+00 0.578D+00
 Coeff:      0.537D-03-0.676D-03-0.612D-03 0.118D-02-0.251D-02 0.845D-03
 Coeff:      0.112D-01 0.275D-02-0.185D-01-0.362D-01 0.630D-02 0.518D-01
 Coeff:      0.660D-01 0.221D-02-0.118D+00-0.102D+00 0.807D-02 0.137D+00
 Coeff:      0.412D+00 0.578D+00
 Gap=     0.072 Goal=   None    Shift=    0.000
 Gap=     0.112 Goal=   None    Shift=    0.000
 RMSDP=6.99D-08 MaxDP=1.63D-05 DE=-6.53D-10 OVMax= 2.37D-05

 Cycle  41  Pass 1  IDiag  1:
 Restarting incremental Fock formation.
 E= -2756.19996142832     Delta-E=       -0.000000000295 Rises=F Damp=F
 DIIS: error= 3.43D-07 at cycle  41 NSaved=  20.
 NSaved=20 IEnMin=20 EnMin= -2756.19996142832     IErMin=20 ErrMin= 3.43D-07
 ErrMax= 3.43D-07  0.00D+00 EMaxC= 1.00D-01 BMatC= 1.28D-10 BMatP= 1.71D-10
 IDIUse=1 WtCom= 1.00D+00 WtEn= 0.00D+00
 Coeff-Com:  0.341D-03 0.727D-02 0.223D-02-0.210D-01-0.814D-02 0.169D-01
 Coeff-Com:  0.261D-01 0.244D-01-0.197D-01-0.927D-01-0.297D-01 0.137D+00
 Coeff-Com:  0.118D+00 0.536D-02-0.159D+00-0.168D+00-0.121D+00 0.131D+00
 Coeff-Com:  0.523D+00 0.628D+00
 Coeff:      0.341D-03 0.727D-02 0.223D-02-0.210D-01-0.814D-02 0.169D-01
 Coeff:      0.261D-01 0.244D-01-0.197D-01-0.927D-01-0.297D-01 0.137D+00
 Coeff:      0.118D+00 0.536D-02-0.159D+00-0.168D+00-0.121D+00 0.131D+00
 Coeff:      0.523D+00 0.628D+00
 Gap=     0.072 Goal=   None    Shift=    0.000
 Gap=     0.112 Goal=   None    Shift=    0.000
 RMSDP=6.03D-08 MaxDP=1.29D-05 DE=-2.95D-10 OVMax= 1.77D-05

 Cycle  42  Pass 1  IDiag  1:
 RMSU=  6.03D-08    CP:  1.00D+00
 E= -2756.19996142863     Delta-E=       -0.000000000306 Rises=F Damp=F
 DIIS: error= 2.54D-07 at cycle  42 NSaved=  20.
 NSaved=20 IEnMin=20 EnMin= -2756.19996142863     IErMin=20 ErrMin= 2.54D-07
 ErrMax= 2.54D-07  0.00D+00 EMaxC= 1.00D-01 BMatC= 4.53D-11 BMatP= 1.28D-10
 IDIUse=1 WtCom= 1.00D+00 WtEn= 0.00D+00
 Coeff-Com:  0.325D-02 0.198D-03-0.103D-01-0.356D-02 0.819D-02 0.140D-01
 Coeff-Com:  0.177D-01-0.539D-02-0.453D-01-0.268D-01 0.364D-01 0.491D-01
 Coeff-Com:  0.555D-01-0.269D-01-0.867D-01-0.157D+00-0.129D+00 0.204D+00
 Coeff-Com:  0.395D+00 0.707D+00
 Coeff:      0.325D-02 0.198D-03-0.103D-01-0.356D-02 0.819D-02 0.140D-01
 Coeff:      0.177D-01-0.539D-02-0.453D-01-0.268D-01 0.364D-01 0.491D-01
 Coeff:      0.555D-01-0.269D-01-0.867D-01-0.157D+00-0.129D+00 0.204D+00
 Coeff:      0.395D+00 0.707D+00
 Gap=     0.072 Goal=   None    Shift=    0.000
 Gap=     0.112 Goal=   None    Shift=    0.000
 RMSDP=3.12D-08 MaxDP=6.72D-06 DE=-3.06D-10 OVMax= 1.02D-05

 Cycle  43  Pass 1  IDiag  1:
 RMSU=  1.42D-08    CP:  1.00D+00  1.46D+00
 E= -2756.19996142873     Delta-E=       -0.000000000106 Rises=F Damp=F
 DIIS: error= 1.94D-07 at cycle  43 NSaved=  20.
 NSaved=20 IEnMin=20 EnMin= -2756.19996142873     IErMin=20 ErrMin= 1.94D-07
 ErrMax= 1.94D-07  0.00D+00 EMaxC= 1.00D-01 BMatC= 2.04D-11 BMatP= 4.53D-11
 IDIUse=1 WtCom= 1.00D+00 WtEn= 0.00D+00
 Coeff-Com: -0.153D-02 0.254D-02 0.256D-02-0.222D-02-0.485D-02-0.606D-02
 Coeff-Com:  0.155D-02 0.160D-01 0.697D-02-0.169D-01-0.211D-01-0.182D-01
 Coeff-Com:  0.446D-01 0.588D-01 0.844D-02-0.130D+00-0.220D+00-0.170D+00
 Coeff-Com:  0.309D+00 0.114D+01
 Coeff:     -0.153D-02 0.254D-02 0.256D-02-0.222D-02-0.485D-02-0.606D-02
 Coeff:      0.155D-02 0.160D-01 0.697D-02-0.169D-01-0.211D-01-0.182D-01
 Coeff:      0.446D-01 0.588D-01 0.844D-02-0.130D+00-0.220D+00-0.170D+00
 Coeff:      0.309D+00 0.114D+01
 Gap=     0.072 Goal=   None    Shift=    0.000
 Gap=     0.112 Goal=   None    Shift=    0.000
 RMSDP=3.56D-08 MaxDP=6.77D-06 DE=-1.06D-10 OVMax= 1.10D-05

 Cycle  44  Pass 1  IDiag  1:
 RMSU=  1.33D-08    CP:  1.00D+00  1.93D+00  2.20D+00
 E= -2756.19996142890     Delta-E=       -0.000000000162 Rises=F Damp=F
 DIIS: error= 1.15D-07 at cycle  44 NSaved=  20.
 NSaved=20 IEnMin=20 EnMin= -2756.19996142890     IErMin=20 ErrMin= 1.15D-07
 ErrMax= 1.15D-07  0.00D+00 EMaxC= 1.00D-01 BMatC= 9.72D-12 BMatP= 2.04D-11
 IDIUse=1 WtCom= 1.00D+00 WtEn= 0.00D+00
 Coeff-Com:  0.244D-03 0.130D-02 0.154D-02-0.238D-02-0.927D-02-0.451D-02
 Coeff-Com:  0.835D-02 0.145D-01 0.122D-01-0.591D-02-0.468D-01-0.120D-01
 Coeff-Com:  0.370D-01 0.811D-01 0.517D-01-0.110D+00-0.156D+00-0.300D+00
 Coeff-Com:  0.183D+00 0.126D+01
 Coeff:      0.244D-03 0.130D-02 0.154D-02-0.238D-02-0.927D-02-0.451D-02
 Coeff:      0.835D-02 0.145D-01 0.122D-01-0.591D-02-0.468D-01-0.120D-01
 Coeff:      0.370D-01 0.811D-01 0.517D-01-0.110D+00-0.156D+00-0.300D+00
 Coeff:      0.183D+00 0.126D+01
 Gap=     0.072 Goal=   None    Shift=    0.000
 Gap=     0.112 Goal=   None    Shift=    0.000
 RMSDP=2.72D-08 MaxDP=5.57D-06 DE=-1.62D-10 OVMax= 8.16D-06

 Cycle  45  Pass 1  IDiag  1:
 RMSU=  9.50D-09    CP:  1.00D+00  2.20D+00  3.00D+00  1.75D+00
 E= -2756.19996142877     Delta-E=        0.000000000123 Rises=F Damp=F
 DIIS: error= 6.68D-08 at cycle  45 NSaved=  20.
 NSaved=20 IEnMin=19 EnMin= -2756.19996142890     IErMin=20 ErrMin= 6.68D-08
 ErrMax= 6.68D-08  0.00D+00 EMaxC= 1.00D-01 BMatC= 6.44D-12 BMatP= 9.72D-12
 IDIUse=1 WtCom= 1.00D+00 WtEn= 0.00D+00
 Coeff-Com:  0.243D-03-0.110D-03 0.292D-03-0.585D-03 0.115D-02-0.331D-02
 Coeff-Com:  0.435D-03 0.960D-02 0.367D-02-0.164D-01-0.179D-01 0.335D-02
 Coeff-Com:  0.479D-01 0.783D-01 0.785D-02-0.601D-01-0.358D+00-0.339D+00
 Coeff-Com:  0.853D+00 0.789D+00
 Coeff:      0.243D-03-0.110D-03 0.292D-03-0.585D-03 0.115D-02-0.331D-02
 Coeff:      0.435D-03 0.960D-02 0.367D-02-0.164D-01-0.179D-01 0.335D-02
 Coeff:      0.479D-01 0.783D-01 0.785D-02-0.601D-01-0.358D+00-0.339D+00
 Coeff:      0.853D+00 0.789D+00
 Gap=     0.072 Goal=   None    Shift=    0.000
 Gap=     0.112 Goal=   None    Shift=    0.000
 RMSDP=1.99D-08 MaxDP=3.87D-06 DE= 1.23D-10 OVMax= 5.94D-06

 Cycle  46  Pass 1  IDiag  1:
 RMSU=  8.85D-09    CP:  1.00D+00  2.37D+00  3.00D+00  2.38D+00  2.29D+00
 E= -2756.19996142879     Delta-E=       -0.000000000014 Rises=F Damp=F
 DIIS: error= 5.48D-08 at cycle  46 NSaved=  20.
 NSaved=20 IEnMin=18 EnMin= -2756.19996142890     IErMin=20 ErrMin= 5.48D-08
 ErrMax= 5.48D-08  0.00D+00 EMaxC= 1.00D-01 BMatC= 3.53D-12 BMatP= 6.44D-12
 IDIUse=1 WtCom= 1.00D+00 WtEn= 0.00D+00
 Coeff-Com: -0.628D-03 0.575D-03 0.187D-02 0.647D-03-0.570D-02-0.541D-03
 Coeff-Com:  0.759D-02 0.585D-02-0.196D-02-0.145D-01-0.146D-01 0.106D-01
 Coeff-Com:  0.472D-01 0.660D-01 0.397D-01-0.150D+00-0.386D+00 0.813D-01
 Coeff-Com:  0.535D+00 0.778D+00
 Coeff:     -0.628D-03 0.575D-03 0.187D-02 0.647D-03-0.570D-02-0.541D-03
 Coeff:      0.759D-02 0.585D-02-0.196D-02-0.145D-01-0.146D-01 0.106D-01
 Coeff:      0.472D-01 0.660D-01 0.397D-01-0.150D+00-0.386D+00 0.813D-01
 Coeff:      0.535D+00 0.778D+00
 Gap=     0.072 Goal=   None    Shift=    0.000
 Gap=     0.112 Goal=   None    Shift=    0.000
 RMSDP=1.36D-08 MaxDP=3.06D-06 DE=-1.36D-11 OVMax= 4.42D-06

 Cycle  47  Pass 1  IDiag  1:
 RMSU=  4.29D-09    CP:  1.00D+00  2.46D+00  3.00D+00  2.79D+00  3.00D+00
                    CP:  1.39D+00
 E= -2756.19996142881     Delta-E=       -0.000000000025 Rises=F Damp=F
 DIIS: error= 4.06D-08 at cycle  47 NSaved=  20.
 NSaved=20 IEnMin=17 EnMin= -2756.19996142890     IErMin=20 ErrMin= 4.06D-08
 ErrMax= 4.06D-08  0.00D+00 EMaxC= 1.00D-01 BMatC= 1.83D-12 BMatP= 3.53D-12
 IDIUse=1 WtCom= 1.00D+00 WtEn= 0.00D+00
 Coeff-Com: -0.697D-04 0.222D-03-0.136D-02 0.137D-03 0.195D-02-0.825D-03
 Coeff-Com:  0.657D-03 0.154D-02 0.242D-02-0.600D-02-0.101D-01-0.162D-01
 Coeff-Com:  0.168D-01 0.371D-01 0.121D+00 0.256D-01-0.484D+00-0.146D+00
 Coeff-Com:  0.508D+00 0.948D+00
 Coeff:     -0.697D-04 0.222D-03-0.136D-02 0.137D-03 0.195D-02-0.825D-03
 Coeff:      0.657D-03 0.154D-02 0.242D-02-0.600D-02-0.101D-01-0.162D-01
 Coeff:      0.168D-01 0.371D-01 0.121D+00 0.256D-01-0.484D+00-0.146D+00
 Coeff:      0.508D+00 0.948D+00
 Gap=     0.072 Goal=   None    Shift=    0.000
 Gap=     0.112 Goal=   None    Shift=    0.000
 RMSDP=1.08D-08 MaxDP=2.53D-06 DE=-2.55D-11 OVMax= 3.57D-06

 Cycle  48  Pass 1  IDiag  1:
 RMSU=  4.24D-09    CP:  1.00D+00  2.52D+00  3.00D+00  3.00D+00  3.00D+00
                    CP:  1.71D+00  2.89D+00
 E= -2756.19996142887     Delta-E=       -0.000000000055 Rises=F Damp=F
 DIIS: error= 2.74D-08 at cycle  48 NSaved=  20.
 NSaved=20 IEnMin=16 EnMin= -2756.19996142890     IErMin=20 ErrMin= 2.74D-08
 ErrMax= 2.74D-08  0.00D+00 EMaxC= 1.00D-01 BMatC= 8.15D-13 BMatP= 1.83D-12
 IDIUse=1 WtCom= 1.00D+00 WtEn= 0.00D+00
 Coeff-Com: -0.107D-02-0.406D-03 0.438D-02 0.124D-02-0.822D-02-0.534D-02
 Coeff-Com: -0.173D-03 0.127D-01 0.116D-01-0.398D-02-0.340D-01-0.470D-01
 Coeff-Com: -0.214D-01 0.142D+00 0.297D+00-0.300D+00-0.475D+00-0.250D+00
 Coeff-Com:  0.586D+00 0.109D+01
 Coeff:     -0.107D-02-0.406D-03 0.438D-02 0.124D-02-0.822D-02-0.534D-02
 Coeff:     -0.173D-03 0.127D-01 0.116D-01-0.398D-02-0.340D-01-0.470D-01
 Coeff:     -0.214D-01 0.142D+00 0.297D+00-0.300D+00-0.475D+00-0.250D+00
 Coeff:      0.586D+00 0.109D+01
 Gap=     0.072 Goal=   None    Shift=    0.000
 Gap=     0.112 Goal=   None    Shift=    0.000
 RMSDP=1.12D-08 MaxDP=2.71D-06 DE=-5.55D-11 OVMax= 3.48D-06

 Cycle  49  Pass 1  IDiag  1:
 RMSU=  8.58D-09    CP:  1.00D+00  2.60D+00  3.00D+00  3.00D+00  3.00D+00
                    CP:  1.96D+00  3.00D+00  1.90D+00
 E= -2756.19996142886     Delta-E=        0.000000000004 Rises=F Damp=F
 DIIS: error= 1.49D-08 at cycle  49 NSaved=  20.
 NSaved=20 IEnMin=15 EnMin= -2756.19996142890     IErMin=20 ErrMin= 1.49D-08
 ErrMax= 1.49D-08  0.00D+00 EMaxC= 1.00D-01 BMatC= 5.46D-13 BMatP= 8.15D-13
 IDIUse=1 WtCom= 1.00D+00 WtEn= 0.00D+00
 Coeff-Com: -0.506D-03 0.248D-02 0.877D-03-0.613D-02-0.428D-02 0.196D-02
 Coeff-Com:  0.107D-01 0.921D-02-0.741D-02-0.308D-01-0.418D-01-0.182D-01
 Coeff-Com:  0.104D+00 0.235D+00-0.142D+00-0.320D+00-0.315D+00 0.184D+00
 Coeff-Com:  0.776D+00 0.562D+00
 Coeff:     -0.506D-03 0.248D-02 0.877D-03-0.613D-02-0.428D-02 0.196D-02
 Coeff:      0.107D-01 0.921D-02-0.741D-02-0.308D-01-0.418D-01-0.182D-01
 Coeff:      0.104D+00 0.235D+00-0.142D+00-0.320D+00-0.315D+00 0.184D+00
 Coeff:      0.776D+00 0.562D+00
 Gap=     0.072 Goal=   None    Shift=    0.000
 Gap=     0.112 Goal=   None    Shift=    0.000
 RMSDP=3.57D-09 MaxDP=6.65D-07 DE= 3.64D-12 OVMax= 1.02D-06

 SCF Done:  E(UB3LYP) =  -2756.19996143     A.U. after   49 cycles
            NFock= 49  Conv=0.36D-08     -V/T= 2.0030
 <Sx>= 0.0000 <Sy>= 0.0000 <Sz>= 0.5000 <S**2>= 1.1634 S= 0.6889
 <L.S>= 0.000000000000E+00
 KE= 2.747850789340D+03 PE=-1.469965723592D+04 EE= 5.091432903428D+03
 Annihilation of the first spin contaminant:
 S**2 before annihilation     1.1634,   after     0.7935
 Leave Link  502 at Sat Mar  6 19:44:01 2021, MaxMem=  3355443200 cpu:           23723.5 elap:             629.4
 (Enter /usr/public/gaussian//g16/l801.exe)
 DoSCS=F DFT=T ScalE2(SS,OS)=  1.000000  1.000000
 Range of M.O.s used for correlation:     1   685
 NBasis=   685 NAE=   126 NBE=   125 NFC=     0 NFV=     0
 NROrb=    685 NOA=   126 NOB=   125 NVA=   559 NVB=   560

 **** Warning!!: The largest alpha MO coefficient is  0.14070639D+02


 **** Warning!!: The smallest alpha delta epsilon is  0.72109256D-01


 **** Warning!!: The largest beta MO coefficient is  0.14562868D+02

 Leave Link  801 at Sat Mar  6 19:44:03 2021, MaxMem=  3355443200 cpu:              17.4 elap:               0.9
 (Enter /usr/public/gaussian//g16/l1101.exe)
 Using compressed storage, NAtomX=    54.
 Will process     55 centers per pass.
 Leave Link 1101 at Sat Mar  6 19:44:07 2021, MaxMem=  3355443200 cpu:             134.2 elap:               3.9
 (Enter /usr/public/gaussian//g16/l1102.exe)
 Symmetrizing basis deriv contribution to polar:
 IMax=3 JMax=2 DiffMx= 0.00D+00
 Leave Link 1102 at Sat Mar  6 19:44:09 2021, MaxMem=  3355443200 cpu:               6.8 elap:               0.6
 (Enter /usr/public/gaussian//g16/l1110.exe)
 Forming Gx(P) for the SCF density, NAtomX=    54.
 Integral derivatives from FoFJK, PRISM(SPDF).
 Do as many integral derivatives as possible in FoFJK.
 G2DrvN: MDV=    3355439068.
 G2DrvN: will do    28 centers at a time, making    2 passes.
 G2DrvN:  IPasSy=1 do centers    0 through   27.
 Calling FoFCou, ICntrl=  3107 FMM=F I1Cent=   0 AccDes= 0.00D+00.
 FoFJK:  IHMeth= 1 ICntrl=    3107 DoSepK=F KAlg= 0 I1Cent=           0 FoldK=F
 IRaf=         0 NMat=       1 IRICut=       1 DoRegI=T DoRafI=F ISym2E= 0 IDoP0=0 IntGTp=1.
 FoFCou: FMM=F IPFlag=           0 FMFlag=      100000 FMFlg1=           0
         NFxFlg=           0 DoJE=F BraDBF=F KetDBF=F FulRan=T
         wScrn=  0.000000 ICntrl=      3107 IOpCl=  1 I1Cent=           0 NGrid=           0
         NMat0=    1 NMatS0=      1 NMatT0=    0 NMatD0=    1 NMtDS0=    0 NMtDT0=    0
 Symmetry not used in FoFCou.
[...]
 80,-0.00000228,0.00000573,0.00000245,0.00000142,0.00001135,0.00000323,
 0.00001330,0.00001062,0.00000921,0.00001047,0.00000598,0.00000581,0.00
 000256,0.00001143,-0.00004650,-0.00000034,0.00000608,0.00002655,0.0001
 1490,-0.00001404,0.00004518,-0.00002770,0.00000992,-0.00000611,0.00000
 502,0.00042532,-0.00005721,-0.00052464,-0.00000253,-0.00000462,-0.0000
 0272,0.00000823,-0.00000230,0.00000225,0.00000504,0.00000809,0.0000002
 0,-0.00000258,-0.00000017,-0.00000788,-0.00081330,0.00006118,0.0001671
 0,-0.00007561,0.00022449,0.00052917,0.00003776,0.00006489,0.00002111,-
 0.00003733,-0.00002664,-0.00004941,0.00255016,0.00078252,-0.00086527,0
 .00002719,-0.00010029,0.00011009,-0.01218588,0.00827731,-0.01226715,0.
 02905611,0.01770711,0.00155535,-0.00821525,-0.01703439,0.01453121,-0.0
 2006798,0.08835366,-0.09531614,0.00066997,0.00227143,0.00633960,-0.017
 42749,0.03938498,-0.07431548,0.00175775,0.00284253,0.00641177,-0.00972
 567,-0.18900486,0.19904804,0.00000169,-0.00007635,0.00000956,0.0000707
 3,0.00004380,0.00007291,0.00000256,0.00000557,0.00000141,-0.00004693,0
 .00004950,-0.00003036,0.00000916,0.00001008,0.00000461,0.00000344,0.00
 000281,0.00001237,0.00001830,0.00001381,0.00001570,-0.00001046,-0.0000
 0083,-0.00001120,0.00003482,-0.00007996,0.00002284,0.00003760,0.000060
 33,0.00003119,0.00001116,-0.00002123,0.00001054,-0.00000183,-0.0000081
 6,-0.00000011,0.00000127,-0.00001832,-0.00000005,0.00000102,-0.0000080
 2,0.00000888,-0.00005135,-0.00000285,-0.00004804,-0.00000898,0.0000043
 3,-0.00000124,-0.00000463,0.00000572,-0.00000425,-0.00000081,0.0000195
 3,0.00000146,0.00003790,-0.00000464,0.00004006,0.00000040,0.00000392,-
 0.00000116,0.00001260,0.00004360,-0.00005808,-0.00001906,-0.00003893,-
 0.00001903,-0.00001140,0.00001539,-0.00000674,-0.00000709,0.00000485,0
 .00000576,-0.00000449,-0.00000217,-0.00000450,-0.00001001,-0.00001791,
 -0.00000986,-0.00001897,-0.00000035,-0.00001242,-0.00000061,-0.0000017
 1,-0.00000354,0.00000356,0.00005728,0.00000534,-0.00003283,-0.00002374
 ,-0.00006389,0.00003474,-0.00003524,0.00004106,-0.00000834,-0.00000010
 ,-0.00000157,-0.00019002,0.00001030,0.00015015,0.00000133,0.00000608,-
 0.00000100,-0.00000170,0.00000195,-0.00000147,-0.00000342,-0.00000813,
 -0.00000513,0.00000215,-0.00000434,0.00001365,0.00015518,-0.00001965,0
 .00002802,-0.00009812,-0.00045715,-0.00007276,0.00002715,-0.00001604,-
 0.00001974,-0.00014984,0.00004395,0.00000546,-0.00080961,0.00123833,-0
 .00053934,-0.00001262,-0.00006127,0.00005261,-0.00196564,-0.00416710,0
 .00158830,-0.01967162,0.01343642,-0.00597392,0.00030447,-0.00059365,0.
 00026633,-0.27550100,0.09963090,-0.04609154,0.00092591,-0.00043426,0.0
 0028808,0.00176959,0.00001394,-0.00010835,-0.00004405,0.00009408,-0.00
 000826,0.00207001,-0.00098038,0.00042745,0.29241919,-0.00000168,0.0000
 1826,-0.00000244,-0.00002601,-0.00001614,-0.00002303,0.00000139,-0.000
 00373,-0.00000057,0.00001185,-0.00001182,0.00000683,-0.00000214,0.0000
 0463,0.00000398,0.00000146,0.00000215,-0.00000747,-0.00000035,-0.00000
 891,0.00000165,0.00000428,0.00000692,0.00000332,-0.00000396,0.00000662
 ,0.00000218,-0.00001126,-0.00001135,-0.00000979,-0.00000473,0.00000441
 ,-0.00000982,-0.00000310,0.00000009,0.00000125,0.00000538,0.00001006,-
 0.00000376,-0.00000156,0.00000148,0.00000454,0.00000742,0.00000437,0.0
 0000756,0.00000760,-0.00000228,0.00000149,-0.00000230,-0.00000011,0.00
 000090,0.00000165,-0.00000763,-0.00000349,-0.00001152,-0.00000141,-0.0
 0001042,-0.00000161,-0.00000327,0.00000165,-0.00000306,-0.00000836,0.0
 0001340,0.00000061,0.00000994,0.00000417,0.00000836,-0.00000173,0.0000
 0345,0.00000217,-0.00000017,-0.00000217,-0.00000101,0.00000053,0.00000
 021,0.00000372,0.00000448,0.00000151,0.00000696,-0.00000165,0.00000442
 ,0.00000010,0.00000226,0.00000157,-0.00000045,-0.00001078,-0.00000119,
 -0.00000160,0.00000350,0.00001746,-0.00000474,0.00000536,-0.00000614,0
 .00000284,0.00000227,-0.00000095,0.00006100,-0.00000049,-0.00005237,-0
 .00000112,-0.00000259,0.00000174,-0.00000041,-0.00000048,0.00000145,-0
 .00000121,0.00000136,0.00000150,0.00000043,0.00000412,-0.00000066,0.00
 001677,-0.00000311,-0.00001846,-0.00016544,-0.00019998,-0.00004125,-0.
 00002415,0.00000477,-0.00001141,-0.00006229,0.00002721,-0.00003119,-0.
 00030519,0.00067570,-0.00013021,0.00001723,-0.00001617,0.00002069,-0.0
 0308241,-0.00039062,0.00346325,-0.01549067,0.01051596,-0.00377029,-0.0
 0074078,-0.00051173,0.00006132,0.09980317,-0.10298050,0.03042064,0.000
 44507,0.00016504,-0.00180519,-0.00102343,-0.00396372,0.00428285,0.0000
 5239,-0.00006671,-0.00045659,0.02780504,-0.00686011,0.00428953,-0.1081
 3949,0.10381610,-0.00000044,-0.00000140,-0.00000622,-0.00001650,-0.000
 00356,-0.00001264,0.00000364,-0.00000275,-0.00000338,0.00000142,-0.000
 00684,-0.00000486,-0.00000314,0.00001427,0.00001281,0.00000299,-0.0000
 0026,-0.00001424,0.00000169,-0.00001557,0.00001085,0.00000031,0.000004
 65,0.00001370,-0.00000513,-0.00000327,-0.00000161,-0.00000151,-0.00000
 270,-0.00000254,-0.00000105,0.00000486,-0.00000083,-0.00000066,-0.0000
 0168,0.00000044,0.00000048,0.00000021,0.00000495,0.00000234,0.00000517
 ,-0.00000379,0.00000301,0.00000656,0.00000031,0.00000263,-0.00000548,0
 .00000548,-0.00000074,0.00000031,-0.00000133,-0.00000123,-0.00000366,-
 0.00000069,-0.00000464,0.00000067,-0.00000495,0.00000182,0.00000137,0.
 00000045,-0.00000424,0.00000791,0.00000280,0.00000005,-0.00000047,-0.0
 0000015,0.00000116,-0.00000238,0.00000230,0.00000292,0.00000070,0.0000
 0247,0.00000204,0.00000025,0.00000111,0.00000006,0.00001166,0.00000064
 ,0.00000692,-0.00000146,0.00000568,-0.00000173,-0.00000388,-0.00000100
 ,-0.00000361,-0.00000690,-0.00000256,-0.00000642,-0.00000494,-0.000003
 93,-0.00000687,-0.00000403,-0.00000804,0.00000267,0.00000610,0.0000026
 8,0.00002697,0.00000038,0.00001702,0.00000243,-0.00000072,-0.00000072,
 -0.00000260,0.00000070,-0.00000229,-0.00000150,-0.00000290,0.00000052,
 0.00000284,0.00000515,-0.00001234,0.00004987,-0.00004793,-0.00004669,0
 .00011262,-0.00002355,-0.00026537,-0.00005921,0.00000460,-0.00001215,0
 .00001675,0.00001952,-0.00000885,0.00024319,-0.00007891,0.00032520,-0.
 00000930,0.00003456,0.00003267,0.00105208,0.00305614,0.00676427,0.0059
 0534,-0.00339679,0.00367286,0.00035890,0.00022343,-0.00046838,-0.04615
 939,0.03041459,-0.04824670,-0.00006057,-0.00180478,-0.00342292,0.00047
 914,0.00435093,0.00457407,-0.00003727,-0.00041373,-0.00097889,-0.01168
 141,0.00385752,0.00029959,0.05009212,-0.03501698,0.04037396,0.00000358
 ,-0.00001150,0.00001228,0.00000448,0.00000085,0.00000865,0.00000164,-0
 .00000070,0.00000320,-0.00001123,0.00001343,-0.00000576,0.00000317,0.0
 0000347,0.00000253,-0.00000026,0.00000247,-0.00000040,0.00000902,0.000
 00459,0.00000503,-0.00000512,-0.00000915,-0.00000351,0.00000103,-0.000
 00648,0.00000006,0.00000881,0.00001971,0.00000267,0.00001346,-0.000003
 55,0.00001729,0.00000140,-0.00000046,-0.00000030,-0.00001102,-0.000018
 04,-0.00000408,0.00000025,-0.00000073,-0.00000119,-0.00001250,0.000006
 99,-0.00001358,0.00001694,0.00000157,0.00000124,-0.00000758,0.00000189
 ,0.00000254,-0.00000612,-0.00001445,-0.00002181,-0.00000384,0.00000826
 ,0.00000281,-0.00000705,0.00000415,0.00000720,0.00000906,0.00001167,-0
 .00002010,-0.00001503,0.00000612,0.00000007,0.00002466,0.00000689,0.00
 000686,0.00000591,-0.00000159,0.00000993,-0.00000145,-0.00000127,-0.00
 000063,-0.00000275,-0.00000444,-0.00000348,-0.00000429,-0.00000063,-0.
 00000251,0.00000145,0.00000230,-0.00000002,-0.00000154,0.00001489,-0.0
 0000205,-0.00000069,-0.00000599,-0.00000999,0.00000062,-0.00000468,0.0
 0000285,-0.00000461,-0.00000893,-0.00000792,-0.00006161,0.00000047,0.0
 0007501,-0.00000386,0.00000381,0.00000885,-0.00000457,-0.00000004,0.00
 000063,-0.00000043,-0.00000125,-0.00000147,0.00000031,0.00000035,0.000
 00009,0.00007896,0.00002319,-0.00004263,0.00003765,-0.00005486,-0.0000
 6724,-0.00000282,-0.00001459,-0.00003366,-0.00002592,0.00002673,0.0000
 0127,0.00077250,-0.00081868,0.00049016,-0.00032469,-0.00027362,0.00008
 888,-0.00453743,-0.00225051,0.00063784,-0.00106360,-0.00025957,0.00011
 208,0.00602303,-0.02601954,0.01023375,-0.00489244,0.00167716,-0.000846
 67,0.00012977,-0.00000508,0.00001713,-0.06132666,0.01474626,-0.0059230
 3,0.00094891,0.00043769,-0.00005302,0.00354909,0.02739164,-0.01085036,
 -0.00007124,0.00135568,-0.00061392,0.05986974,0.00000190,-0.00006221,0
 .00001331,0.00005042,0.00003844,0.00004988,0.00000294,0.00000556,0.000
 00850,-0.00004396,0.00004281,-0.00002902,0.00001391,0.00001029,0.00001
 585,0.00000460,-0.00000041,0.,0.00001816,0.00000556,0.00001110,-0.0000
 1261,-0.00001613,0.00000048,0.00001561,-0.00004421,0.00000346,0.000029
 75,0.00005740,0.00002135,0.00002441,-0.00001481,0.00003406,0.00000466,
 -0.00000441,-0.00000131,-0.00001623,-0.00004052,0.00000280,0.00000547,
 -0.00000266,-0.00000427,-0.00004072,0.00001034,-0.00004156,0.00000977,
 -0.00000083,0.00000074,-0.00000838,0.00000340,-0.00000063,-0.00001189,
 -0.00000407,-0.00002088,0.00002244,0.00001377,0.00002840,-0.00000522,0
 .00000994,0.00000563,0.00001471,0.00005235,-0.00005614,-0.00002694,-0.
 00002201,-0.00001609,0.00001683,0.00001157,0.00000480,0.00000351,-0.00
 000191,0.00001032,-0.00000522,-0.00000018,-0.00000322,-0.00001104,-0.0
 0000781,-0.00001171,-0.00000893,-0.00000519,-0.00000927,-0.00000277,-0
 .00000407,-0.00000166,0.00000224,0.00005226,0.00000670,-0.00002184,-0.
 00002526,-0.00005864,0.00001881,-0.00002831,0.00002283,-0.00000968,-0.
 00000907,-0.00000345,-0.00018827,-0.00000636,0.00018065,-0.00000329,0.
 00000904,0.00000854,-0.00000892,0.00000197,-0.00000433,0.00000087,-0.0
 0000334,-0.00000021,0.00000530,-0.00000123,-0.00000425,0.00013223,0.00
 001458,-0.00003890,0.00011766,-0.00011188,-0.00009110,0.00001504,-0.00
 001815,-0.00001765,-0.00004686,0.00002487,0.00003794,0.00038066,-0.000
 44899,0.00032445,-0.00020868,-0.00022897,-0.00009826,-0.00310002,0.001
 93508,0.00240117,-0.00006747,0.00059887,-0.00034091,0.00272952,-0.0119
 0164,0.00572336,0.00267702,0.00159549,0.00183760,0.00000829,-0.0002606
 7,-0.00035555,0.01487536,-0.29067475,0.10128362,-0.00044442,0.00027650
 ,-0.00180009,-0.00184792,-0.00838281,0.00419557,-0.00011034,-0.0005127
 3,0.00036042,-0.01542233,0.30781465,-0.00000213,0.00003760,-0.00002307
 ,-0.00004917,-0.00003866,-0.00003746,0.00000703,-0.00001033,-0.0000227
 8,0.00002292,-0.00002560,0.00000241,-0.00002576,0.00003000,-0.00000329
 ,0.00000131,0.00000340,-0.00000867,-0.00000518,-0.00002342,0.00002567,
 0.00000438,0.00002612,0.00000264,-0.00000458,0.00002096,0.00000212,-0.
 00002268,-0.00004456,-0.00001806,-0.00002049,0.00001050,-0.00002399,-0
 .00000332,0.00000041,0.00000030,0.00000981,0.00002912,-0.00000020,-0.0
 0000156,0.00000259,0.00000310,0.00002571,-0.00000722,0.00002088,-0.000
 00455,-0.00000425,0.00002498,-0.00000069,0.00000016,-0.00000067,0.0000
 1029,-0.00000461,0.00001219,-0.00001658,-0.00000928,-0.00002148,0.0000
 0957,-0.00000989,-0.00000346,-0.00001334,-0.00002502,0.00003102,0.0000
 2238,0.00000820,0.00001134,-0.00000749,-0.00000538,0.00000505,0.000004
 79,-0.00000211,-0.00000081,-0.00000126,0.00000118,0.00000173,0.0000123
 2,0.00002345,0.00000685,0.00001931,-0.00000727,0.00001581,0.00000011,-
 0.00000028,0.00000207,-0.00000869,-0.00003785,-0.00000924,0.00000091,0
 .00000804,0.00002418,-0.00002145,0.00001199,-0.00002183,0.00001135,0.0
 0001193,0.00000315,0.00011572,0.00002991,-0.00007848,0.00001352,-0.000
 01491,-0.00001648,-0.00000081,0.00000017,0.00000226,-0.00000144,-0.000
 00033,0.00000082,-0.00000135,0.00000282,0.00000044,-0.00005709,0.00003
 010,-0.00007073,-0.00005737,0.00006871,0.00019673,-0.00001579,0.000020
 29,0.00001660,0.00002003,-0.00000388,-0.00000514,-0.00030960,0.0001801
 6,0.00002812,0.00012241,-0.00012977,-0.00039640,0.00122948,0.00291114,
 0.00704476,0.00024969,-0.00028939,-0.00011594,-0.00130336,0.00488449,0
 .00088994,-0.00136324,0.00165447,0.00558074,0.00003356,-0.00039031,-0.
 00100624,-0.00511237,0.10108706,-0.07574560,-0.00011126,-0.00173673,-0
 .00370883,0.00021029,0.00502804,0.00031058,0.00003338,0.00034570,0.000
 19223,0.00650014,-0.11217029,0.06968708,-0.00000039,-0.00004719,-0.000
 00038,0.00004575,0.00003589,0.00004518,-0.00000041,0.00000636,0.000005
 45,-0.00002994,0.00002823,-0.00002295,0.00000898,0.00000316,0.00000799
 ,0.00000308,-0.00000300,0.00000407,0.00000702,0.00000315,0.00000297,-0
 .00000699,-0.00000715,0.00000085,0.00001422,-0.00003744,0.00000755,0.0
 0002048,0.00003935,0.00001743,0.00001047,-0.00000959,0.00001584,0.0000
 0217,-0.00000393,-0.00000148,-0.00000560,-0.00001942,0.00000374,0.0000
 0419,-0.00000267,-0.00000124,-0.00002873,0.00000424,-0.00002781,-0.000
 00548,-0.00000273,-0.00000158,-0.00000164,0.00000178,-0.00000317,-0.00
 000595,0.00000874,-0.00000188,0.00002697,0.00000335,0.00002710,-0.0000
 0056,0.00000599,-0.00000017,0.00000122,0.00004070,-0.00003169,-0.00001
 138,-0.00002726,-0.00001525,-0.00000386,0.00000497,-0.00000187,-0.0000
 0386,0.00000219,-0.00000018,-0.00000293,0.00000026,-0.00000249,-0.0000
 0723,-0.00001148,-0.00000667,-0.00000974,0.00000054,-0.00000977,-0.000
 00226,-0.00000336,-0.00000142,0.00000567,0.00003680,0.00000860,-0.0000
 2059,-0.00001667,-0.00003764,0.00002081,-0.00001675,0.00002266,-0.0000
 0640,-0.00000557,0.00000141,-0.00007242,-0.00002235,0.00005421,-0.0000
 0089,0.00000578,0.00000170,-0.00000180,0.00000144,-0.00000365,0.000000
 95,-0.00000226,-0.00000024,0.00000400,-0.00000258,-0.00000093,-0.00002
 866,-0.00008123,0.00006661,0.00002331,0.00000612,-0.00012642,0.0000332
 3,-0.00001208,0.00005074,-0.00002342,-0.00000406,0.00004340,0.00012587
 ,0.00007840,0.00000278,-0.00003537,-0.00005331,0.00002982,0.00005217,0
 .00072254,-0.00027886,0.00158282,0.00074721,-0.00043138,-0.00334437,0.
 00383175,-0.00160758,0.00509842,0.00254888,-0.00102145,0.00007297,0.00
 019273,-0.00007897,-0.01816483,-0.01702144,0.00653141,-0.00094535,-0.0
 0084802,0.00026469,-0.25201913,-0.11733369,0.04452644,0.00080073,-0.00
 050494,0.00030470,0.00089493,0.00047189,-0.00014781,0.26592977,0.00000
 080,-0.00001137,-0.00000054,0.00001189,0.00000584,0.00001359,0.0000020
 2,0.00000027,-0.00000323,-0.00000939,0.00000740,-0.00001037,-0.0000041
 1,0.00000627,0.00000360,0.00000224,-0.00000053,-0.00000262,0.00000259,
 -0.00000125,0.00000823,-0.00000911,-0.00000417,0.00000207,0.00000124,-
 0.00001300,0.00000601,0.00000651,0.00001362,0.00000317,0.00000667,0.00
 000018,0.00001389,0.00000181,-0.00000293,-0.00000239,-0.00001081,-0.00
 000985,0.00000213,0.00000460,0.00000086,-0.00000472,-0.00000666,0.0000
 0507,-0.00001055,0.00000075,-0.00000113,0.00000512,-0.00000244,0.00000
 206,-0.00000261,-0.00000168,-0.00000194,-0.00000096,0.00000662,0.00000
 280,0.00000687,0.00000165,-0.00000056,-0.00000073,-0.00000201,0.000012
 16,-0.00000968,-0.00000468,-0.00000401,-0.00000431,0.00000216,0.000002
 79,0.00000418,0.00000441,0.00000084,0.00000673,-0.00000160,0.00000045,
 -0.00000212,-0.00000124,0.00000024,-0.00000080,-0.00000065,-0.00000242
 ,0.00000130,0.00000124,0.00000036,-0.00000038,-0.00000248,0.00001247,-
 0.00000215,-0.00001180,-0.00001057,-0.00001353,0.00000391,-0.00000504,
 0.00000319,-0.00000200,-0.00000201,0.00000077,-0.00002726,0.00001144,0
 .00001639,0.00000184,-0.00000069,-0.00000203,-0.00000191,0.00000119,-0
 .00000200,0.00000002,-0.00000334,-0.00000187,0.00000374,-0.00000022,-0
 .00000607,-0.00001404,0.00002559,0.00002868,0.00004586,-0.00003890,0.0
 0000953,-0.00002751,0.00000770,-0.00003109,-0.00001598,0.00000379,-0.0
 0001777,-0.00011538,0.00004038,-0.00026857,0.00003953,0.00006028,-0.00
 002605,0.00072140,-0.00064147,-0.00008996,0.00177029,-0.00368479,0.004
 17846,0.00271629,0.00036932,0.00237417,-0.02615152,-0.00963397,0.00434
 711,-0.00126499,-0.00063544,0.00037276,0.01183514,0.01042687,-0.003142
 08,0.00060720,0.00033055,-0.00004011,-0.11733716,-0.12789766,0.0377343
 7,0.00051586,0.00030070,-0.00153516,-0.00055956,0.00026087,-0.00147738
 ,0.12726770,0.13069492,-0.00000092,0.00003101,-0.00001290,-0.00003791,
 -0.00003147,-0.00004191,0.00000504,-0.00000718,-0.00000804,0.00002102,
 -0.00002368,0.00000499,-0.00001329,0.00001397,0.00000245,0.00000127,0.
 00000372,-0.00001187,-0.00000386,-0.00001753,0.00001041,0.00000444,0.0
 0001394,0.00000401,-0.00000826,0.00001599,0.00000932,-0.00001825,-0.00
 002269,-0.00001638,-0.00000927,0.00001021,-0.00001290,-0.00000222,0.00
 000129,0.00000035,0.00000305,0.00001705,-0.00000302,-0.00000145,0.0000
 0359,0.00000110,0.00001334,0.00000566,0.00000949,0.00000890,-0.0000073
 7,0.00001060,-0.00000124,-0.00000055,-0.00000004,0.00000386,-0.0000080
 9,0.00000018,-0.00001395,-0.00000535,-0.00001498,0.00000187,-0.0000028
 6,0.00000096,-0.00002010,-0.00000803,0.00003664,0.00000551,0.00000521,
 0.00000391,0.00000413,-0.00000468,0.00000286,0.00000872,-0.00000134,0.
 00000233,0.00000178,0.00000047,0.00000171,0.00000558,0.00001428,0.0000
 0458,0.00001169,-0.00000088,0.00000908,-0.00000040,-0.00000120,0.00000
 047,-0.00000179,-0.00001842,-0.00000510,-0.00000147,0.00000446,0.00003
 216,-0.00001178,0.00000879,-0.00001606,0.00000845,0.00000622,0.0000028
 5,0.00015539,0.00000589,-0.00018405,0.00000358,-0.00000508,-0.00000171
 ,-0.00000132,-0.00000037,0.00000041,-0.00000049,0.00000040,0.00000109,
 -0.00000107,0.00000487,-0.00000344,-0.00030815,0.00004773,0.00011735,0
 .00011729,0.00006825,0.00024067,-0.00003322,0.00005077,-0.00000935,0.0
 0000715,-0.00001263,-0.00004735,0.00002196,-0.00043229,-0.00049334,-0.
 00004090,0.00000554,-0.00000706,-0.00013940,-0.00022303,-0.00088802,-0
 .00095084,0.00421627,0.00449069,-0.00132704,0.00245535,0.00520374,0.01
 094612,0.00507875,0.00027087,0.00052874,0.00040488,0.00012003,-0.00507
 860,-0.00376302,0.00361716,-0.00023619,-0.00011230,0.00020374,0.044410
 26,0.03761452,-0.04605612,-0.00013169,-0.00155437,-0.00278102,0.000278
 30,-0.00141415,-0.00280695,-0.04818240,-0.04243050,0.03900540\\0.00000
 003,0.00000020,-0.00000001,-0.00000015,0.00000023,0.00000051,0.0000002
 7,0.00000020,0.00000030,0.00000020,-0.00000075,0.00000014,-0.00000011,
 0.00000019,-0.00000019,0.00000001,-0.00000040,0.00000010,0.00000003,-0
 .00000123,0.00000002,-0.00000050,0.00000021,-0.00000054,-0.00000040,-0
 .00000008,-0.00000091,0.00000014,0.00000051,-0.00000050,-0.00000059,-0
 .00000122,-0.00000043,-0.00000013,0.00000053,-0.00000017,-0.00000003,0
 .00000001,-0.00000013,-0.00000021,-0.00000024,-0.00000015,0.00000017,0
 .00000018,0.00000101,0.00000067,-0.00000024,0.00000072,0.00000037,0.00
 000013,0.00000033,-0.00000002,0.00000071,0.00000023,0.00000034,0.00000
 007,0.,0.00000027,0.00000044,0.00000031,-0.00000019,-0.00000032,-0.000
 00025,0.,0.00000039,0.00000002,0.00000002,-0.00000053,-0.00000006,0.00
 000012,0.00000036,-0.00000013,-0.00000005,0.00000045,-0.00000012,-0.00
 000012,0.00000012,-0.00000008,-0.00000003,0.00000031,-0.00000012,-0.00
 000008,0.00000053,-0.00000020,-0.00000033,-0.00000005,-0.00000006,-0.0
 0000053,0.00000027,-0.00000050,0.00000024,0.,0.00000014,0.00000021,0.0
 0000036,0.00000033,0.00000067,0.00000004,0.00000036,0.00000017,-0.0000
 0024,0.00000015,0.,0.00000039,-0.00000006,-0.00000032,-0.00000013,-0.0
 0000038,0.00000001,-0.00000038,0.00000015,-0.00000122,0.00000051,-0.00
 000033,0.00000084,0.00000053,0.00000079,-0.00000008,0.00000002,-0.0000
 0007,-0.00000031,-0.00000007,0.00000008,0.00000046,-0.00000077,-0.0000
 0061,0.00000017,0.00000028,0.00000002,-0.00000002,-0.00000109,-0.00000
 009,-0.00000059,-0.00000007,-0.00000015,0.00000039,0.00000085,-0.00000
 047,0.00000024,-0.00000012,0.00000003,-0.00000005,-0.00000026,-0.00000
 012,-0.00000027,-0.00000083,0.00000060,-0.00000006,0.00000013,0.000000
 04,0.00000017,0.00000035,0.00000001,0.00000010,-0.00000029,0.00000007,
 0.00000017,0.00000020,0.00000012,-0.00000009,-0.00000038,0.00000024\\\
 @


 SACRED COWS MAKE GREAT HAMBURGERS -- ROBERT REISNER
 Job cpu time:       1 days 17 hours 41 minutes 26.6 seconds.
 Elapsed time:       0 days  1 hours  6 minutes 14.1 seconds.
 File lengths (MBytes):  RWF=   4923 Int=      0 D2E=      0 Chk=     42 Scr=      2
 Normal termination of Gaussian 16 at Sat Mar  6 20:39:39 2021.
